----- GAMESS execution script 'rungms' -----
This job is running on host nitrogen.csb.vanderbilt.edu
under operating system Linux at Sat Sep 17 16:10:03 CDT 2022
Available scratch disk space (Kbyte units) at beginning of the job is
Filesystem           1K-blocks     Used Available Use% Mounted on
/dev/mapper/vg0-root 104806400 10928600  93877800  11% /
GAMESS temporary binary files will be written to /tmp
GAMESS supplementary output files will be written to /home/brownbp1/bensbin/ncaa_tutorial_rdg/outputs/manual/3_GeometryOptimize/qm
Copying input file ./5F-TRP.3D.capped.geoopt.inp to your run's scratch directory...
 
Assuming a single but multicore node.
 

 Distributed Data Interface kickoff program.
 Initiating 8 compute processes on 1 nodes to run the following command:
 /home/brownbp1/bensbin/md_scripts/QMMM/GAMESS/gamess/gamess.01.x 5F-TRP.3D.capped.geoopt 

          *******************************************************
          *                                                     *
          *          GAMESS VERSION = 30 SEP 2020 (R2)          *
          *                                                     *
          *              doi.org/10.1063/5.0005188              *
          *                                                     *
          **************** 64 BIT LINUX VERSION *****************

  GAMESS HAS BEEN MADE POSSIBLE WITH IMPORTANT CONTRIBUTIONS FROM
  THE FOLLOWING INDIVIDUALS (IN ALPHABETICAL ORDER):

     IVANA ADAMOVIC, CHRISTINE AIKENS, TOMOKO AKAMA,
     YURI ALEXEEV, YURIKO AOKI, POOJA ARORA, TOSHIO ASADA,
     ANDREY ASADCHEV, KIM K. BALDRIDGE, PRADIPTA BANDYOPADHYAY,
     MARIA BARYSZ, ROB BELL, JONATHAN BENTZ, COLLEEN BERTONI,
     JERRY A. BOATZ, BRETT BODE, KURT BRORSEN, KURT R. BRORSEN,
     LAIMUTIS BYTAUTAS, CALEB CARLIN, LAURA CARRINGTON,
     GALINA CHABAN, BENOIT CHAMPAGNE, WEI CHEN, MAHITO CHIBA,
     DAN CHIPMAN, CHEOL HO CHOI, TANNER CULPITT,
     DIPAYAN DATTA, PAUL DAY, ALBERT DEFUSCO,
     NUWAN DESILVA, J. EMILIANO DEUSTUA,
     TIM DUDLEY, MICHEL DUPUIS, STEVEN T. ELBERT,
     DMITRI FEDOROV, ALEX FINDLATER, GRAHAM FLETCHER,
     MARK FREITAG, CHRISTIAN FRIEDL, DAVID GARMER,
     IGOR S. GERASIMOV, KURT GLAESEMANN, MARK S. GORDON,
     JEFFREY GOUR, FENG LONG GU, EMILIE B. GUIDEZ,
     ANASTASIA GUNINA, SHARON HAMMES-SCHIFFER, MASATAKE HARUTA,
     KIMIHIKO HIRAO, YASUHIRO IKABATA, TZVETELIN IORDANOV,
     STEPHAN IRLE, KAZUYA ISHIMURA, JOE IVANIC, FRANK JENSEN,
     JAN H. JENSEN, VISVALDAS KAIRYS, MUNEAKI KAMIYA,
     MICHIO KATOUDA, NAOAKI KAWAKAMI, DAN KEMP, BERNARD KIRTMAN,
     KAZUO KITAURA, MARIUSZ KLOBUKOWSKI, MASATO KOBAYASHI,
     PRAKASHAN KORAMBATH, JACEK KORCHOWIEC, SHIRO KOSEKI,
     KAROL KOWALSKI, JIMMY KROMANN, STANISLAW KUCHARSKI,
     HENRY KURTZ, SAROM SOK LEANG, HUI LI, SHUHUA LI, WEI LI,
     JESSE LUTZ, ALEKSANDR O. LYKHIN, MARCIN MAKOWSKI,
     JOANI MATO, NIKITA MATSUNAGA, BENEDETTA MENNUCCI,
     GRANT MERRILL, NORIYUKI MINEZAWA, VLADIMIR MIRONOV,
     EISAKU MIYOSHI, JOHN A. MONTGOMERY JR., HIROTOSHI MORI,
     JONATHAN MULLIN, MONIKA MUSIAL, SHIGERU NAGASE,
     TAKESHI NAGATA, HIROMI NAKAI, TAKAHITO NAKAJIMA,
     YUYA NAKAJIMA, HARUYUKI NAKANO, HIROYA NAKATA, SEAN NEDD,
     HEATHER NETZLOFF, KIET A. NGUYEN, YOSHIO NISHIMOTO,
     BOSILJKA NJEGIC, RYAN OLSON, MIKE PAK, ROBERTO PEVERATI,
     BUU PHAM, PIOTR PIECUCH, ANNA POMOGAEVA, DAVID POOLE,
     SPENCER PRUITT, OLIVIER QUINET, LUKE ROSKOP,
     KLAUS RUEDENBERG, ANDREW SAND, TOSAPORN SATTASATHUCHANA,
     NOZOMI SAWADA, MICHAEL W. SCHMIDT, PATRICK E. SCHNEIDER,
     JUNJI SEINO, PRACHI SHARMA, JUN SHEN, JIM SHOEMAKER,
     YINAN SHU, DEJUN SI, JONATHAN SKONE, LYUDMILA SLIPCHENKO,
     TONY SMITH, JIE SONG, MARK SPACKMAN, CASPER STEINMANN,
     WALT STEVENS, PEIFENG SU, SHUJUN SU, CHET SWALINA,
     TETSUYA TAKETSUGU, ZHEN TAO, NANDUN THELLAMUREGE
     SEIKEN TOKURA, JACOPO TOMASI, TSUGUKI TOUMA, TAKAO TSUNEDA,
     HIROAKI UMEDA, JORGE LUIS GALVEZ VALLEJO, YALI WANG,
     SIMON WEBB, AARON WEST, THERESA L. WINDUS, MARTA WLOCH,
     PENG XU, KIYOSHI YAGI, SUSUMU YANAGISAWA, YANG YANG,
     SOOHAENG YOO, TAKESHI YOSHIKAWA, FEDERICO ZAHARIEV,
     TOBY ZENG

  WHO ARE SUPPORTED BY THEIR INSTITUTION/UNIVERSITY/COMPANY/GROUP
  (IN ALPHABETICAL ORDER):

     EP ANALYTICS, FACULTES UNIVERSITAIRES NOTRE-DAME DE LA PAIX,
     INSTITUTE FOR MOLECULAR SCIENCE, IOWA STATE UNIVERSITY,
     JACKSON STATE UNIVERSITY, JOHANNES KEPLER UNIVERSITY LINZ,
     KYUSHU UNIVERSITY, MICHIGAN STATE UNIVERSITY,
     MIE UNIVERSITY, MOSCOW STATE UNIVERSITY,
     N. COPERNICUS UNIVERSITY, NAGOYA UNIVERSITY,
     NANJING UNIVERSITY, NAT. INST. OF ADVANCED INDUSTRIAL
     SCIENCE AND TECHNOLOGY, NATIONAL INST. OF STANDARDS AND
     TECHNOLOGY, NESMEYANOV INSTITUTE OF ORGANOELEMENT COMPOUNDS
     OF RUSSIAN ACADEMY OF SCIENCES, OSAKA PREFECTURE UNIVERSITY,
     PENNSYLVANIA STATE UNIVERSITY, TOKYO INSTITUTE OF TECHNOLOGY,
     UNIVERSITY OF AARHUS, UNIVERSITY OF ALBERTA,
     UNIVERSITY OF CALIFORNIA AT SANTA BARBARA,
     UNIVERSITY OF COPENHAGEN, UNIVERSITY OF IOWA,
     UNIVERSITY OF MEMPHIS, UNIVERSITY OF MINNESOTA,
     UNIVERSITY OF NEBRASKA, UNIVERSITY OF NEW ENGLAND,
     UNIVERSITY OF NOTRE DAME, UNIVERSITY OF PISA,
     UNIVERSITY OF SILESIA, UNIVERSITY OF TOKYO,
     UNIVERSITY OF ZURICH, WASEDA UNIVERSITY, YALE UNIVERSITY

  GAMESS SOFTWARE MANAGEMENT TEAM FOR THIS RELEASE:
     MARK S. GORDON (TEAM LEAD),
     BRETT BODE (SENIOR ADVISOR),
     GIUSEPPE BARCA,
     COLLEEN BERTONI,
     KRISTOPHER KEIPERT (ADVISOR),
     SAROM S. LEANG (DEVELOPMENT LEAD),
     BUU PHAM,
     JORGE LUIS GALVEZ VALLEJO (WEBSITE ADMINISTRATOR),
     PENG XU


 PARALLEL VERSION RUNNING ON        8 PROCESSORS IN        1 NODES.

 EXECUTION OF GAMESS BEGUN 16:10:03 17-SEP-2022    

            ECHO OF THE FIRST FEW INPUT CARDS -
 INPUT CARD> $CONTRL EXETYP=RUN COORD=UNIQUE MOLPLT=.TRUE. $END                             
 INPUT CARD> $CONTRL SCFTYP=RHF RUNTYP=ENERGY DFTTYP=B3LYP ICHARG=0 MULT=1 $END             
 INPUT CARD> $BASIS  NGAUSS=6 GBASIS=N31 $END                                               
 INPUT CARD> $BASIS  NDFUNC=1 NPFUNC=0 DIFFSP=.FALSE. DIFFS=.FALSE. $END                    
 INPUT CARD> $DFT    DC=.TRUE. IDCVER=3 $END                                                
 INPUT CARD> $PCM    SOLVNT=WATER SMD=.TRUE. $END                                           
 INPUT CARD> $STATPT NSTEP=100 $END                                                         
 INPUT CARD> $SYSTEM MWORDS=50 MEMDDI=200 $END                                              
 INPUT CARD> $ELPOT  IEPOT=1 WHERE=PDC OUTPUT=PUNCH $END                                    
 INPUT CARD> $PDC    PTSEL=CONNOLLY $END                                                    
 INPUT CARD> $GUESS  GUESS=HUCKEL $END                                                      
 INPUT CARD>                                                                                
 INPUT CARD> $DATA                                                                          
 INPUT CARD>5F-TRP.3D.capped.geoopt.log                                                     
 INPUT CARD>C1                                                                              
 INPUT CARD>C      6.0      5.8485000000    0.5510000000    0.7864000000                    
 INPUT CARD>N      7.0      3.6469000000   -0.3702000000    1.1473000000                    
 INPUT CARD>C      6.0      4.9381000000   -0.1680000000    1.7817000000                    
 INPUT CARD>C      6.0      5.5998000000   -1.5260000000    2.1631000000                    
 INPUT CARD>C      6.0      4.7625000000   -2.3494000000    3.0887000000                    
 INPUT CARD>C      6.0      3.8487000000   -3.3124000000    2.7282000000                    
 INPUT CARD>N      7.0      3.2035000000   -3.8032000000    3.8444000000                    
 INPUT CARD>C      6.0      3.7111000000   -3.1759000000    4.9657000000                    
 INPUT CARD>C      6.0      3.4020000000   -3.3459000000    6.3188000000                    
 INPUT CARD>C      6.0      4.0770000000   -2.5547000000    7.2439000000                    
 INPUT CARD>C      6.0      5.0356000000   -1.6312000000    6.7978000000                    
 INPUT CARD>C      6.0      5.3625000000   -1.4455000000    5.4676000000                    
 INPUT CARD>C      6.0      4.6892000000   -2.2401000000    4.5211000000                    
 INPUT CARD>O      8.0      5.8918000000    0.1831000000   -0.3970000000                    
 INPUT CARD>F      9.0      5.6712000000   -0.8783000000    7.7401000000                    
 INPUT CARD>C      6.0      2.4661000000   -0.2663000000    1.8103000000                    
 INPUT CARD>O      8.0      2.3869000000    0.1429000000    2.9751000000                    
 INPUT CARD>C      6.0      1.2298000000   -0.6348000000    1.0140000000                    
 INPUT CARD>N      7.0      6.6167000000    1.5459000000    1.2705000000                    
 INPUT CARD>C      6.0      7.5645000000    2.2527000000    0.4149000000                    
 INPUT CARD>H      1.0      3.6703000000   -0.7042000000    0.1923000000                    
 INPUT CARD>H      1.0      4.7628000000    0.4235000000    2.6827000000                    
 INPUT CARD>H      1.0      6.5804000000   -1.3170000000    2.6105000000                    
 INPUT CARD>H      1.0      5.7884000000   -2.0697000000    1.2302000000                    
 INPUT CARD>H      1.0      3.6045000000   -3.6911000000    1.7446000000                    
 INPUT CARD>H      1.0      2.5840000000   -4.6024000000    3.8515000000                    
 INPUT CARD>H      1.0      2.6579000000   -4.0681000000    6.6431000000                    
 INPUT CARD>H      1.0      3.8809000000   -2.6395000000    8.3081000000                    
 INPUT CARD>H      1.0      6.1136000000   -0.7141000000    5.1845000000                    
 INPUT CARD>H      1.0      0.5446000000   -1.1810000000    1.6682000000                    
 INPUT CARD>H      1.0      1.4459000000   -1.2437000000    0.1307000000                    
 INPUT CARD>H      1.0      0.7234000000    0.2825000000    0.6909000000                    
 INPUT CARD>H      1.0      6.5221000000    1.8358000000    2.2352000000                    
 INPUT CARD>H      1.0      8.3018000000    1.5595000000   -0.0022000000                    
 INPUT CARD>H      1.0      8.0828000000    3.0065000000    1.0101000000                    
   50000000 WORDS OF MEMORY AVAILABLE

     BASIS OPTIONS
     -------------
     GBASIS=N31          IGAUSS=       6      POLAR=POPN31  
     NDFUNC=       1     NFFUNC=       0     DIFFSP=       F
     NPFUNC=       0      DIFFS=       F     BASNAM=        


     RUN TITLE
     ---------
 5F-TRP.3D.capped.geoopt.log                                                     

 THE POINT GROUP OF THE MOLECULE IS C1      
 THE ORDER OF THE PRINCIPAL AXIS IS     0

 ATOM      ATOMIC                      COORDINATES (BOHR)
           CHARGE         X                   Y                   Z
 C           6.0    11.0520624392        1.0412390192        1.4860805167
 N           7.0     6.8916417046       -0.6995765607        2.1680826257
 C           6.0     9.3316559000       -0.3174739659        3.3669247923
 C           6.0    10.5820875860       -2.8837218573        4.0876662840
 C           6.0     8.9998200165       -4.4397222356        5.8367966583
 C           6.0     7.2729884089       -6.2595283617        5.1555504397
 N           7.0     6.0537372017       -7.1870058765        7.2648625872
 C           6.0     7.0129621130       -6.0015807644        9.3838123372
 C           6.0     6.4288478102       -6.3228341823       11.9408005712
 C           6.0     7.7044128519       -4.8276829808       13.6889860825
 C           6.0     9.5159041838       -3.0825210312       12.8459793193
 C           6.0    10.1336556092       -2.7315989153       10.3322658105
 C           6.0     8.8613031016       -4.2331751851        8.5436401631
 O           8.0    11.1338875745        0.3460088284       -0.7502212171
 F           9.0    10.7170140216       -1.6597463350       14.6266681176
 C           6.0     4.6602532583       -0.5032340305        3.4209709556
 O           8.0     4.5105869601        0.2700418436        5.6221237861
 C           6.0     2.3239850197       -1.1995980570        1.9161821515
 N           7.0    12.5037499430        2.9213274044        2.4008968674
 C           6.0    14.2948322341        4.2569857325        0.7840473123
 H           1.0     6.9358612927       -1.3307450406        0.3633943074
 H           1.0     9.0003869343        0.8002989558        5.0695679073
 H           1.0    12.4351528896       -2.4887691258        4.9331296909
 H           1.0    10.9384899073       -3.9111658768        2.3247409101
 H           1.0     6.8115173227       -6.9751675933        3.2968159582
 H           1.0     4.8830519523       -8.6972748859        7.2782796417
 H           1.0     5.0227027028       -7.6875942907       12.5536387090
 H           1.0     7.3338375857       -4.9879317446       15.7000324786
 H           1.0    11.5530287985       -1.3494533278        9.7972843833
 H           1.0     1.0291447729       -2.2317663915        3.1524408927
 H           1.0     2.7323548056       -2.3502522109        0.2469871866
 H           1.0     1.3670277795        0.5338475915        1.3056116849
 H           1.0    12.3249818645        3.4691589683        4.2239155278
 H           1.0    15.6881272049        2.9470276779       -0.0041573972
 H           1.0    15.2742772136        5.6814611821        1.9088122202
 H           1.0    13.3172769807        5.1924000965       -0.7814016959

          INTERNUCLEAR DISTANCES (ANGS.)
          ------------------------------

                1 C          2 N          3 C          4 C          5 C     

   1 C       0.0000000    2.4136903 *  1.5285324 *  2.5042132 *  3.8590545  
   2 N       2.4136903 *  0.0000000    1.4527717 *  2.4862706 *  2.9884494 *
   3 C       1.5285324 *  1.4527717 *  0.0000000    1.5580362 *  2.5490371 *
   4 C       2.5042132 *  2.4862706 *  1.5580362 *  0.0000000    1.4952572 *
   5 C       3.8590545    2.9884494 *  2.5490371 *  1.4952572 *  0.0000000  
   6 C       4.7639948    3.3461185    3.4597552    2.5645495 *  1.3756307 *
   7 N       5.9419228    4.3882161    4.5252898    3.7087280    2.2616582 *
   8 C       5.9937310    4.7388029    4.5487193    3.7608409    2.3047068 *
   9 C       7.1957377    5.9715307    5.7483848    5.0410518    3.6438329  
  10 C       7.3812527    6.4904205    6.0227451    5.4029318    4.2163664  
  11 C       6.4466839    5.9537181    5.2260616    4.6700999    3.7878513  
  12 C       5.1123225    4.7712206    3.9240260    3.3139873    2.6146129 *
  13 C       4.8043938    3.9956779    3.4438150    2.6266509 *  1.4384329 *
  14 O       1.2400245 *  2.7803919 *  2.4040692 *  3.0919895    4.4540969  
  15 F       7.1012870    6.9152706    6.0452041    5.6149392    4.9623979  
  16 C       3.6272552    1.3581800 *  2.4741190 *  3.3957897    3.3536644  
  17 O       4.1157779    2.2785356 *  2.8336344 *  3.7104309    3.4449876  
  18 C       4.7739201    2.4351908 *  3.8155936    4.6056018    4.4411938  
  19 N       1.3469633 *  3.5364289    2.4528507 *  3.3566933    4.6815885  
  20 C       2.4450871 *  4.7711219    3.8243833    4.6037836    6.0149593  
  21 H       2.5832222 *  1.0119924 *  2.1026221 *  2.8779121 *  3.5055266  
  22 H       2.1888249 *  2.0573395 *  1.0919722 *  2.1842856 *  2.8024651 *
  23 H       2.7115388 *  3.4121557    2.1689305 *  1.0979181 *  2.1445945 *
  24 H       2.6586912 *  2.7351773 *  2.1549072 *  1.0961214 *  2.1411971 *
  25 H       4.8937813    3.3744543    3.7672402    2.9738901 *  2.2243488 *
  26 H       6.8271026    5.1336119    5.4304477    4.6270921    3.2254821  
  27 H       8.1127645    6.6974923    6.6365128    5.9319009    4.4740396  
  28 H       8.4039699    7.5154198    7.0583200    6.4773084    5.3012747  
  29 H       4.5841073    4.7436125    3.6413010    3.1704937    2.9819549 *
  30 H       5.6487831    3.2485379    4.5101988    5.0910704    4.6014845  
  31 H       4.7993518    2.5769903 *  4.0097871    4.6330582    4.5795384  
  32 H       5.1330169    3.0300446    4.3768129    5.4053050    5.3842986  
  33 H       2.0502364 *  3.7837465    2.5942114 *  3.4867657    4.6195837  
  34 H       2.7672447 *  5.1684801    4.1810325    4.6378485    6.1122669  
  35 H       3.3274042    5.5765702    4.5345292    5.2951161    6.6355584  
  36 H       2.7752716 *  4.8702605    4.2152713    5.1959933    6.5928512  

                6 C          7 N          8 C          9 C         10 C     

   1 C       4.7639948    5.9419228    5.9937310    7.1957377    7.3812527  
   2 N       3.3461185    4.3882161    4.7388029    5.9715307    6.4904205  
   3 C       3.4597552    4.5252898    4.5487193    5.7483848    6.0227451  
   4 C       2.5645495 *  3.7087280    3.7608409    5.0410518    5.4029318  
   5 C       1.3756307 *  2.2616582 *  2.3047068 *  3.6438329    4.2163664  
   6 C       0.0000000    1.3795181 *  2.2458790 *  3.6184350    4.5845149  
   7 N       1.3795181 *  0.0000000    1.3814763 *  2.5241198 *  3.7253664  
   8 C       2.2458790 *  1.3814763 *  0.0000000    1.3983284 *  2.3895538 *
   9 C       3.6184350    2.5241198 *  1.3983284 *  0.0000000    1.3919168 *
  10 C       4.5845149    3.7253664    2.3895538 *  1.3919168 *  0.0000000  
  11 C       4.5603519    4.0983833    2.7380630 *  2.4162545 *  1.4038417 *
  12 C       3.6443406    3.5853603    2.4440355 *  2.8600038 *  2.4572498 *
  13 C       2.2518344 *  2.2602011 *  1.4248054 *  2.4721252 *  2.8084519 *
  14 O       5.1146508    6.4114755    6.6930475    7.9846675    8.3169947  
  15 F       5.8622087    5.4608664    4.1010064    3.6412103    2.3660104 *
  16 C       3.4688396    4.1462011    4.4690431    5.5395322    6.1119377  
  17 O       3.7599092    4.1224050    4.0902845    4.9378622    5.3250481  
  18 C       4.1190606    4.6845933    5.3131885    6.3410897    7.1136642  
  19 N       5.7783901    6.8474642    6.6627629    7.7297695    7.6776627  
  20 C       7.0801740    8.2130211    8.0640046    9.1392978    9.0503587  
  21 H       3.6421591    4.8124357    5.3755291    6.6771675    7.3016996  
  22 H       3.8463746    4.6525215    4.3901984    5.4112269    5.4904046  
  23 H       3.3849164    4.3711730    4.1515490    5.2886814    5.4099268  
  24 H       2.7478616 *  4.0645752    4.4150667    5.7634574    6.2712601  
  25 H       1.0819040 *  2.1406839 *  3.2637831    4.5916745    5.6353316  
  26 H       2.1272915 *  1.0112128 *  2.1322988 *  2.8871241 *  4.2344424  
  27 H       4.1611932    2.8636643 *  2.1723080 *  1.0864751 *  2.1599039 *
  28 H       5.6204195    4.6623692    3.3894240    2.1646387 *  1.0854344 *
  29 H       4.2325341    4.4505156    3.4467868    3.9453495    3.4317162  
  30 H       4.0722896    4.3222134    4.9879710    5.8719338    6.7419086  
  31 H       4.0987771    4.8406369    5.6781822    6.8218878    7.6966891  
  32 H       5.1808684    5.7261159    6.2578588    7.2120346    7.8891157  
  33 H       5.8218622    6.7380228    6.3619563    7.2980016    7.0952153  
  34 H       7.1428701    8.3395171    8.2570316    9.3822188    9.3424591  
  35 H       7.7979464    8.8438023    8.5428685    9.5102666    9.2646447  
  36 H       7.5382686    8.7073551    8.6691633    9.7848509    9.7761602  

               11 C         12 C         13 C         14 O         15 F     

   1 C       6.4466839    5.1123225    4.8043938    1.2400245 *  7.1012870  
   2 N       5.9537181    4.7712206    3.9956779    2.7803919 *  6.9152706  
   3 C       5.2260616    3.9240260    3.4438150    2.4040692 *  6.0452041  
   4 C       4.6700999    3.3139873    2.6266509 *  3.0919895    5.6149392  
   5 C       3.7878513    2.6146129 *  1.4384329 *  4.4540969    4.9623979  
   6 C       4.5603519    3.6443406    2.2518344 *  5.1146508    5.8622087  
   7 N       4.0983833    3.5853603    2.2602011 *  6.4114755    5.4608664  
   8 C       2.7380630 *  2.4440355 *  1.4248054 *  6.6930475    4.1010064  
   9 C       2.4162545 *  2.8600038 *  2.4721252 *  7.9846675    3.6412103  
  10 C       1.4038417 *  2.4572498 *  2.8084519 *  8.3169947    2.3660104 *
  11 C       0.0000000    1.3823097 *  2.3820401 *  7.4692644    1.3633690 *
  12 C       1.3823097 *  0.0000000    1.4073323 *  6.1095032    2.3624707 *
  13 C       2.3820401 *  1.4073323 *  0.0000000    5.6130074    3.6305350  
  14 O       7.4692644    6.1095032    5.6130074    0.0000000    8.2089969  
  15 F       1.3633690 *  2.3624707 *  3.6305350    8.2089969    0.0000000  
  16 C       5.7741180    4.8120151    4.0232445    4.0999456    6.7682892  
  17 O       4.9775574    4.1940155    3.6564177    4.8638461    5.8766233  
  18 C       6.9949460    6.1295185    5.1811376    4.9390409    8.0638544  
  19 N       6.5684768    5.3044453    5.3493413    2.2722808 *  6.9732661  
  20 C       7.8880560    6.6374140    6.7315288    2.7821486 *  8.1881806  
  21 H       6.8085243    5.5894415    4.7048545    2.4636635 *  7.8104543  
  22 H       4.6076306    3.4071204    3.2372668    3.2889186    5.3006762  
  23 H       4.4742161    3.1085066    2.8423834 *  3.4306743    5.2279918  
  24 H       5.6353491    4.3042508    3.4738019    2.7809314 *  6.6190609  
  25 H       5.6414595    4.6897774    3.3152568    4.9827319    6.9375149  
  26 H       4.8496449    4.5053145    3.2342994    7.2036313    6.2065236  
  27 H       3.4082064    3.9464785    3.4598624    8.8370707    4.5230753  
  28 H       2.1519775 *  3.4189494    3.8928445    9.3696081    2.5748055 *
  29 H       2.1461345 *  1.0859295 *  2.1903632 *  5.6574999    2.5988018 *
  30 H       6.8326098    6.1414624    5.1418324    5.8922294    7.9524603  
  31 H       7.5819737    6.6229133    5.5486413    4.6989629    8.7114663  
  32 H       7.7169647    6.8792511    6.0631273    5.2825908    8.6901900  
  33 H       5.9200583    4.7497381    5.0197432    3.1713045    6.1963129  
  34 H       8.1907649    6.8984217    6.9244553    2.8032916 *  8.5326511  
  35 H       8.0181769    6.8621893    7.1673184    3.8408331    8.1363619  
  36 H       8.6731855    7.4167700    7.4019315    2.8128979 *  9.0289781  

               16 C         17 O         18 C         19 N         20 C     

   1 C       3.6272552    4.1157779    4.7739201    1.3469633 *  2.4450871 *
   2 N       1.3581800 *  2.2785356 *  2.4351908 *  3.5364289    4.7711219  
   3 C       2.4741190 *  2.8336344 *  3.8155936    2.4528507 *  3.8243833  
   4 C       3.3957897    3.7104309    4.6056018    3.3566933    4.6037836  
   5 C       3.3536644    3.4449876    4.4411938    4.6815885    6.0149593  
   6 C       3.4688396    3.7599092    4.1190606    5.7783901    7.0801740  
   7 N       4.1462011    4.1224050    4.6845933    6.8474642    8.2130211  
   8 C       4.4690431    4.0902845    5.3131885    6.6627629    8.0640046  
   9 C       5.5395322    4.9378622    6.3410897    7.7297695    9.1392978  
  10 C       6.1119377    5.3250481    7.1136642    7.6776627    9.0503587  
  11 C       5.7741180    4.9775574    6.9949460    6.5684768    7.8880560  
  12 C       4.8120151    4.1940155    6.1295185    5.3044453    6.6374140  
  13 C       4.0232445    3.6564177    5.1811376    5.3493413    6.7315288  
  14 O       4.0999456    4.8638461    4.9390409    2.2722808 *  2.7821486 *
  15 F       6.7682892    5.8766233    8.0638544    6.9732661    8.1881806  
  16 C       0.0000000    1.2371242 *  1.5160223 *  4.5610233    5.8554406  
  17 O       1.2371242 *  0.0000000    2.4061610 *  4.7712973    6.1492619  
  18 C       1.5160223 *  2.4061610 *  0.0000000    5.8172104    6.9874889  
  19 N       4.5610233    4.7712973    5.8172104    0.0000000    1.4594322 *
  20 C       5.8554406    6.1492619    6.9874889    1.4594322 *  0.0000000  
  21 H       2.0639230 *  3.1794134    2.5760527 *  3.8609245    4.8946503  
  22 H       2.5518105 *  2.4102147 *  4.0480424    2.5867037 *  4.0420802  
  23 H       4.3210826    4.4552984    5.6252226    3.1611887    4.3048659  
  24 H       3.8244535    4.4170666    4.7839852    3.7094836    4.7436681  
  25 H       3.6096435    4.2066894    3.9387747    6.0600568    7.2648786  
  26 H       4.7939713    4.8295753    5.0623229    7.7926775    9.1437408  
  27 H       6.1519449    5.5910809    6.7463905    8.7208901   10.1399069  
  28 H       7.0608174    6.1979573    8.0156751    8.6330753    9.9902521  
  29 H       4.9889885    4.4163549    6.4226833    4.5475384    5.8013875  
  30 H       2.1328457 *  2.6181612 *  1.0935315 *  6.6681742    7.9145469  
  31 H       2.1948064 *  3.3013258    1.0943844 *  5.9848296    7.0528610  
  32 H       2.1427182 *  2.8291854 *  1.0964825 *  6.0550062    7.1245009  
  33 H       4.5880824    4.5291546    5.9668780    1.0117496 *  2.1386667 *
  34 H       6.3776247    6.7717880    7.4740082    2.1117557 *  1.0945821 *
  35 H       6.5497220    6.6711848    7.7603280    2.0858115 *  1.0913809 *
  36 H       5.9174285    6.3234476    6.8790410    2.1131752 *  1.0949296 *

               21 H         22 H         23 H         24 H         25 H     

   1 C       2.5832222 *  2.1888249 *  2.7115388 *  2.6586912 *  4.8937813  
   2 N       1.0119924 *  2.0573395 *  3.4121557    2.7351773 *  3.3744543  
   3 C       2.1026221 *  1.0919722 *  2.1689305 *  2.1549072 *  3.7672402  
   4 C       2.8779121 *  2.1842856 *  1.0979181 *  1.0961214 *  2.9738901 *
   5 C       3.5055266    2.8024651 *  2.1445945 *  2.1411971 *  2.2243488 *
   6 C       3.6421591    3.8463746    3.3849164    2.7478616 *  1.0819040 *
   7 N       4.8124357    4.6525215    4.3711730    4.0645752    2.1406839 *
   8 C       5.3755291    4.3901984    4.1515490    4.4150667    3.2637831  
   9 C       6.6771675    5.4112269    5.2886814    5.7634574    4.5916745  
  10 C       7.3016996    5.4904046    5.4099268    6.2712601    5.6353316  
  11 C       6.8085243    4.6076306    4.4742161    5.6353491    5.6414595  
  12 C       5.5894415    3.4071204    3.1085066    4.3042508    4.6897774  
  13 C       4.7048545    3.2372668    2.8423834 *  3.4738019    3.3152568  
  14 O       2.4636635 *  3.2889186    3.4306743    2.7809314 *  4.9827319  
  15 F       7.8104543    5.3006762    5.2279918    6.6190609    6.9375149  
  16 C       2.0639230 *  2.5518105 *  4.3210826    3.8244535    3.6096435  
  17 O       3.1794134    2.4102147 *  4.4552984    4.4170666    4.2066894  
  18 C       2.5760527 *  4.0480424    5.6252226    4.7839852    3.9387747  
  19 N       3.8609245    2.5867037 *  3.1611887    3.7094836    6.0600568  
  20 C       4.8946503    4.0420802    4.3048659    4.7436681    7.2648786  
  21 H       0.0000000    2.9440373 *  3.8330011    2.7254677 *  3.3668289  
  22 H       2.9440373 *  0.0000000    2.5175827 *  3.0622962    4.3762568  
  23 H       3.8330011    2.5175827 *  0.0000000    1.7604117 *  3.9041151  
  24 H       2.7254677 *  3.0622962    1.7604117 *  0.0000000    2.7682060 *
  25 H       3.3668289    4.3762568    3.9041151    2.7682060 *  0.0000000  
  26 H       5.4558002    5.6011547    5.3202582    4.8532425    2.5121536 *
  27 H       7.3453113    6.3474280    6.2623015    6.5645350    5.0033472  
  28 H       8.3460139    6.4656664    6.4419680    7.3525436    6.6529536  
  29 H       5.5580459    3.0623190    2.6845608 *  4.1928385    5.1952886  
  30 H       3.4893580    4.6256720    6.1104261    5.3365785    3.9584627  
  31 H       2.2897184 *  4.5048957    5.7024443    4.5550502    3.6406035  
  32 H       3.1474432    4.5059850    6.3677086    5.6105182    5.0200117  
  33 H       4.3310280    2.2999965 *  3.1755939    4.0989353    6.2689474  
  34 H       5.1587751    4.5851614    4.2501378    4.5833483    7.2584253  
  35 H       5.8230789    4.5267957    4.8488285    5.5749907    8.0902724  
  36 H       4.8668327    4.4952023    5.0876580    5.2434407    7.6136538  

               26 H         27 H         28 H         29 H         30 H     

   1 C       6.8271026    8.1127645    8.4039699    4.5841073    5.6487831  
   2 N       5.1336119    6.6974923    7.5154198    4.7436125    3.2485379  
   3 C       5.4304477    6.6365128    7.0583200    3.6413010    4.5101988  
   4 C       4.6270921    5.9319009    6.4773084    3.1704937    5.0910704  
   5 C       3.2254821    4.4740396    5.3012747    2.9819549 *  4.6014845  
   6 C       2.1272915 *  4.1611932    5.6204195    4.2325341    4.0722896  
   7 N       1.0112128 *  2.8636643 *  4.6623692    4.4505156    4.3222134  
   8 C       2.1322988 *  2.1723080 *  3.3894240    3.4467868    4.9879710  
   9 C       2.8871241 *  1.0864751 *  2.1646387 *  3.9453495    5.8719338  
  10 C       4.2344424    2.1599039 *  1.0854344 *  3.4317162    6.7419086  
  11 C       4.8496449    3.4082064    2.1519775 *  2.1461345 *  6.8326098  
  12 C       4.5053145    3.9464785    3.4189494    1.0859295 *  6.1414624  
  13 C       3.2342994    3.4598624    3.8928445    2.1903632 *  5.1418324  
  14 O       7.2036313    8.8370707    9.3696081    5.6574999    5.8922294  
  15 F       6.2065236    4.5230753    2.5748055 *  2.5988018 *  7.9524603  
  16 C       4.7939713    6.1519449    7.0608174    4.9889885    2.1328457 *
  17 O       4.8295753    5.5910809    6.1979573    4.4163549    2.6181612 *
  18 C       5.0623229    6.7463905    8.0156751    6.4226833    1.0935315 *
  19 N       7.7926775    8.7208901    8.6330753    4.5475384    6.6681742  
  20 C       9.1437408   10.1399069    9.9902521    5.8013875    7.9145469  
  21 H       5.4558002    7.3453113    8.3460139    5.5580459    3.4893580  
  22 H       5.6011547    6.3474280    6.4656664    3.0623190    4.6256720  
  23 H       5.3202582    6.2623015    6.4419680    2.6845608 *  6.1104261  
  24 H       4.8532425    6.5645350    7.3525436    4.1928385    5.3365785  
  25 H       2.5121536 *  5.0033472    6.6529536    5.1952886    3.9584627  
  26 H       0.0000000    2.8432320 *  5.0394652    5.4179186    4.5422383  
  27 H       2.8432320 *  0.0000000    2.5117428 *  5.0317683    6.1278882  
  28 H       5.0394652    2.5117428 *  0.0000000    4.2952289    7.5727401  
  29 H       5.4179186    5.0317683    4.2952289    0.0000000    6.6027360  
  30 H       4.5422383    6.1278882    7.5727401    6.6027360    0.0000000  
  31 H       5.1400866    7.2012175    8.6456552    6.8999126    1.7833057 *
  32 H       6.1084755    7.6222500    8.7481213    7.0880116    1.7688745 *
  33 H       7.7182561    8.3197151    7.9927694    3.9201062    6.7196040  
  34 H       9.2473376   10.3770661   10.3071356    6.0711888    8.3949228  
  35 H       9.8084512   10.5456244   10.1387417    5.9284255    8.6482779  
  36 H       9.5986639   10.7478690   10.7291046    6.6478021    7.8773070  

               31 H         32 H         33 H         34 H         35 H     

   1 C       4.7993518    5.1330169    2.0502364 *  2.7672447 *  3.3274042  
   2 N       2.5769903 *  3.0300446    3.7837465    5.1684801    5.5765702  
   3 C       4.0097871    4.3768129    2.5942114 *  4.1810325    4.5345292  
   4 C       4.6330582    5.4053050    3.4867657    4.6378485    5.2951161  
   5 C       4.5795384    5.3842986    4.6195837    6.1122669    6.6355584  
   6 C       4.0987771    5.1808684    5.8218622    7.1428701    7.7979464  
   7 N       4.8406369    5.7261159    6.7380228    8.3395171    8.8438023  
   8 C       5.6781822    6.2578588    6.3619563    8.2570316    8.5428685  
   9 C       6.8218878    7.2120346    7.2980016    9.3822188    9.5102666  
  10 C       7.6966891    7.8891157    7.0952153    9.3424591    9.2646447  
  11 C       7.5819737    7.7169647    5.9200583    8.1907649    8.0181769  
  12 C       6.6229133    6.8792511    4.7497381    6.8984217    6.8621893  
  13 C       5.5486413    6.0631273    5.0197432    6.9244553    7.1673184  
  14 O       4.6989629    5.2825908    3.1713045    2.8032916 *  3.8408331  
  15 F       8.7114663    8.6901900    6.1963129    8.5326511    8.1363619  
  16 C       2.1948064 *  2.1427182 *  4.5880824    6.3776247    6.5497220  
  17 O       3.3013258    2.8291854 *  4.5291546    6.7717880    6.6711848  
  18 C       1.0943844 *  1.0964825 *  5.9668780    7.4740082    7.7603280  
  19 N       5.9848296    6.0550062    1.0117496 *  2.1117557 *  2.0858115 *
  20 C       7.0528610    7.1245009    2.1386667 *  1.0945821 *  1.0913809 *
  21 H       2.2897184 *  3.1474432    4.3310280    5.1587751    5.8230789  
  22 H       4.5048957    4.5059850    2.2999965 *  4.5851614    4.5267957  
  23 H       5.7024443    6.3677086    3.1755939    4.2501378    4.8488285  
  24 H       4.5550502    5.6105182    4.0989353    4.5833483    5.5749907  
  25 H       3.6406035    5.0200117    6.2689474    7.2584253    8.0902724  
  26 H       5.1400866    6.1084755    7.7182561    9.2473376    9.8084512  
  27 H       7.2012175    7.6222500    8.3197151   10.3770661   10.5456244  
  28 H       8.6456552    8.7481213    7.9927694   10.3071356   10.1387417  
  29 H       6.8999126    7.0880116    3.9201062    6.0711888    5.9284255  
  30 H       1.7833057 *  1.7688745 *  6.7196040    8.3949228    8.6482779  
  31 H       0.0000000    1.7790775 *  6.2992100    7.4080333    7.9300685  
  32 H       1.7790775 *  0.0000000    6.1985906    7.7164281    7.8538419  
  33 H       6.2992100    6.1985906    0.0000000    2.8722174 *  2.3037346 *
  34 H       7.4080333    7.7164281    2.8722174 *  0.0000000    1.7794722 *
  35 H       7.9300685    7.8538419    2.3037346 *  1.7794722 *  0.0000000  
  36 H       6.8994195    6.8765803    2.8500708 *  1.7762342 *  1.7793487 *

               36 H     

   1 C       2.7752716 *
   2 N       4.8702605  
   3 C       4.2152713  
   4 C       5.1959933  
   5 C       6.5928512  
   6 C       7.5382686  
   7 N       8.7073551  
   8 C       8.6691633  
   9 C       9.7848509  
  10 C       9.7761602  
  11 C       8.6731855  
  12 C       7.4167700  
  13 C       7.4019315  
  14 O       2.8128979 *
  15 F       9.0289781  
  16 C       5.9174285  
  17 O       6.3234476  
  18 C       6.8790410  
  19 N       2.1131752 *
  20 C       1.0949296 *
  21 H       4.8668327  
  22 H       4.4952023  
  23 H       5.0876580  
  24 H       5.2434407  
  25 H       7.6136538  
  26 H       9.5986639  
  27 H      10.7478690  
  28 H      10.7291046  
  29 H       6.6478021  
  30 H       7.8773070  
  31 H       6.8994195  
  32 H       6.8765803  
  33 H       2.8500708 *
  34 H       1.7762342 *
  35 H       1.7793487 *
  36 H       0.0000000  

  * ... LESS THAN  3.000


     ATOMIC BASIS SET
     ----------------
 THE CONTRACTED PRIMITIVE FUNCTIONS HAVE BEEN UNNORMALIZED
 THE CONTRACTED BASIS FUNCTIONS ARE NOW NORMALIZED TO UNITY

  SHELL TYPE  PRIMITIVE        EXPONENT          CONTRACTION COEFFICIENT(S)

 C         

      1   S       1          3047.5248800    0.001834737132
      1   S       2           457.3695180    0.014037322813
      1   S       3           103.9486850    0.068842622264
      1   S       4            29.2101553    0.232184443216
      1   S       5             9.2866630    0.467941348435
      1   S       6             3.1639270    0.362311985337

      2   L       7             7.8682723   -0.119332419775    0.068999066591
      2   L       8             1.8812885   -0.160854151696    0.316423960957
      2   L       9             0.5442493    1.143456437840    0.744308290898

      3   L      10             0.1687145    1.000000000000    1.000000000000

      4   D      11             0.8000000    1.000000000000

 N         

      5   S      12          4173.5114600    0.001834772160
      5   S      13           627.4579110    0.013994627002
      5   S      14           142.9020930    0.068586551812
      5   S      15            40.2343293    0.232240873040
      5   S      16            12.8202129    0.469069948082
      5   S      17             4.3904370    0.360455199063

      6   L      18            11.6263619   -0.114961181702    0.067579743878
      6   L      19             2.7162798   -0.169117478561    0.323907295893
      6   L      20             0.7722184    1.145851947027    0.740895139755

      7   L      21             0.2120315    1.000000000000    1.000000000000

      8   D      22             0.8000000    1.000000000000

 C         

      9   S      23          3047.5248800    0.001834737132
      9   S      24           457.3695180    0.014037322813
      9   S      25           103.9486850    0.068842622264
      9   S      26            29.2101553    0.232184443216
      9   S      27             9.2866630    0.467941348435
      9   S      28             3.1639270    0.362311985337

     10   L      29             7.8682723   -0.119332419775    0.068999066591
     10   L      30             1.8812885   -0.160854151696    0.316423960957
     10   L      31             0.5442493    1.143456437840    0.744308290898

     11   L      32             0.1687145    1.000000000000    1.000000000000

     12   D      33             0.8000000    1.000000000000

 C         

     13   S      34          3047.5248800    0.001834737132
     13   S      35           457.3695180    0.014037322813
     13   S      36           103.9486850    0.068842622264
     13   S      37            29.2101553    0.232184443216
     13   S      38             9.2866630    0.467941348435
     13   S      39             3.1639270    0.362311985337

     14   L      40             7.8682723   -0.119332419775    0.068999066591
     14   L      41             1.8812885   -0.160854151696    0.316423960957
     14   L      42             0.5442493    1.143456437840    0.744308290898

     15   L      43             0.1687145    1.000000000000    1.000000000000

     16   D      44             0.8000000    1.000000000000

 C         

     17   S      45          3047.5248800    0.001834737132
     17   S      46           457.3695180    0.014037322813
     17   S      47           103.9486850    0.068842622264
     17   S      48            29.2101553    0.232184443216
     17   S      49             9.2866630    0.467941348435
     17   S      50             3.1639270    0.362311985337

     18   L      51             7.8682723   -0.119332419775    0.068999066591
     18   L      52             1.8812885   -0.160854151696    0.316423960957
     18   L      53             0.5442493    1.143456437840    0.744308290898

     19   L      54             0.1687145    1.000000000000    1.000000000000

     20   D      55             0.8000000    1.000000000000

 C         

     21   S      56          3047.5248800    0.001834737132
     21   S      57           457.3695180    0.014037322813
     21   S      58           103.9486850    0.068842622264
     21   S      59            29.2101553    0.232184443216
     21   S      60             9.2866630    0.467941348435
     21   S      61             3.1639270    0.362311985337

     22   L      62             7.8682723   -0.119332419775    0.068999066591
     22   L      63             1.8812885   -0.160854151696    0.316423960957
     22   L      64             0.5442493    1.143456437840    0.744308290898

     23   L      65             0.1687145    1.000000000000    1.000000000000

     24   D      66             0.8000000    1.000000000000

 N         

     25   S      67          4173.5114600    0.001834772160
     25   S      68           627.4579110    0.013994627002
     25   S      69           142.9020930    0.068586551812
     25   S      70            40.2343293    0.232240873040
     25   S      71            12.8202129    0.469069948082
     25   S      72             4.3904370    0.360455199063

     26   L      73            11.6263619   -0.114961181702    0.067579743878
     26   L      74             2.7162798   -0.169117478561    0.323907295893
     26   L      75             0.7722184    1.145851947027    0.740895139755

     27   L      76             0.2120315    1.000000000000    1.000000000000

     28   D      77             0.8000000    1.000000000000

 C         

     29   S      78          3047.5248800    0.001834737132
     29   S      79           457.3695180    0.014037322813
     29   S      80           103.9486850    0.068842622264
     29   S      81            29.2101553    0.232184443216
     29   S      82             9.2866630    0.467941348435
     29   S      83             3.1639270    0.362311985337

     30   L      84             7.8682723   -0.119332419775    0.068999066591
     30   L      85             1.8812885   -0.160854151696    0.316423960957
     30   L      86             0.5442493    1.143456437840    0.744308290898

     31   L      87             0.1687145    1.000000000000    1.000000000000

     32   D      88             0.8000000    1.000000000000

 C         

     33   S      89          3047.5248800    0.001834737132
     33   S      90           457.3695180    0.014037322813
     33   S      91           103.9486850    0.068842622264
     33   S      92            29.2101553    0.232184443216
     33   S      93             9.2866630    0.467941348435
     33   S      94             3.1639270    0.362311985337

     34   L      95             7.8682723   -0.119332419775    0.068999066591
     34   L      96             1.8812885   -0.160854151696    0.316423960957
     34   L      97             0.5442493    1.143456437840    0.744308290898

     35   L      98             0.1687145    1.000000000000    1.000000000000

     36   D      99             0.8000000    1.000000000000

 C         

     37   S     100          3047.5248800    0.001834737132
     37   S     101           457.3695180    0.014037322813
     37   S     102           103.9486850    0.068842622264
     37   S     103            29.2101553    0.232184443216
     37   S     104             9.2866630    0.467941348435
     37   S     105             3.1639270    0.362311985337

     38   L     106             7.8682723   -0.119332419775    0.068999066591
     38   L     107             1.8812885   -0.160854151696    0.316423960957
     38   L     108             0.5442493    1.143456437840    0.744308290898

     39   L     109             0.1687145    1.000000000000    1.000000000000

     40   D     110             0.8000000    1.000000000000

 C         

     41   S     111          3047.5248800    0.001834737132
     41   S     112           457.3695180    0.014037322813
     41   S     113           103.9486850    0.068842622264
     41   S     114            29.2101553    0.232184443216
     41   S     115             9.2866630    0.467941348435
     41   S     116             3.1639270    0.362311985337

     42   L     117             7.8682723   -0.119332419775    0.068999066591
     42   L     118             1.8812885   -0.160854151696    0.316423960957
     42   L     119             0.5442493    1.143456437840    0.744308290898

     43   L     120             0.1687145    1.000000000000    1.000000000000

     44   D     121             0.8000000    1.000000000000

 C         

     45   S     122          3047.5248800    0.001834737132
     45   S     123           457.3695180    0.014037322813
     45   S     124           103.9486850    0.068842622264
     45   S     125            29.2101553    0.232184443216
     45   S     126             9.2866630    0.467941348435
     45   S     127             3.1639270    0.362311985337

     46   L     128             7.8682723   -0.119332419775    0.068999066591
     46   L     129             1.8812885   -0.160854151696    0.316423960957
     46   L     130             0.5442493    1.143456437840    0.744308290898

     47   L     131             0.1687145    1.000000000000    1.000000000000

     48   D     132             0.8000000    1.000000000000

 C         

     49   S     133          3047.5248800    0.001834737132
     49   S     134           457.3695180    0.014037322813
     49   S     135           103.9486850    0.068842622264
     49   S     136            29.2101553    0.232184443216
     49   S     137             9.2866630    0.467941348435
     49   S     138             3.1639270    0.362311985337

     50   L     139             7.8682723   -0.119332419775    0.068999066591
     50   L     140             1.8812885   -0.160854151696    0.316423960957
     50   L     141             0.5442493    1.143456437840    0.744308290898

     51   L     142             0.1687145    1.000000000000    1.000000000000

     52   D     143             0.8000000    1.000000000000

 O         

     53   S     144          5484.6716600    0.001831074430
     53   S     145           825.2349460    0.013950172200
     53   S     146           188.0469580    0.068445078098
     53   S     147            52.9645000    0.232714335992
     53   S     148            16.8975704    0.470192897984
     53   S     149             5.7996353    0.358520852987

     54   L     150            15.5396162   -0.110777549525    0.070874268231
     54   L     151             3.5999336   -0.148026262701    0.339752839147
     54   L     152             1.0137618    1.130767015354    0.727158577316

     55   L     153             0.2700058    1.000000000000    1.000000000000

     56   D     154             0.8000000    1.000000000000

 F         

     57   S     155          7001.7130900    0.001819616901
     57   S     156          1051.3660900    0.013916079607
     57   S     157           239.2856900    0.068405324535
     57   S     158            67.3974453    0.233185760119
     57   S     159            21.5199573    0.471267439240
     57   S     160             7.4031013    0.356618546182

     58   L     161            20.8479528   -0.108506975109    0.071628724237
     58   L     162             4.8083083   -0.146451658147    0.345912102697
     58   L     163             1.3440699    1.128688581135    0.722469956367

     59   L     164             0.3581514    1.000000000000    1.000000000000

     60   D     165             0.8000000    1.000000000000

 C         

     61   S     166          3047.5248800    0.001834737132
     61   S     167           457.3695180    0.014037322813
     61   S     168           103.9486850    0.068842622264
     61   S     169            29.2101553    0.232184443216
     61   S     170             9.2866630    0.467941348435
     61   S     171             3.1639270    0.362311985337

     62   L     172             7.8682723   -0.119332419775    0.068999066591
     62   L     173             1.8812885   -0.160854151696    0.316423960957
     62   L     174             0.5442493    1.143456437840    0.744308290898

     63   L     175             0.1687145    1.000000000000    1.000000000000

     64   D     176             0.8000000    1.000000000000

 O         

     65   S     177          5484.6716600    0.001831074430
     65   S     178           825.2349460    0.013950172200
     65   S     179           188.0469580    0.068445078098
     65   S     180            52.9645000    0.232714335992
     65   S     181            16.8975704    0.470192897984
     65   S     182             5.7996353    0.358520852987

     66   L     183            15.5396162   -0.110777549525    0.070874268231
     66   L     184             3.5999336   -0.148026262701    0.339752839147
     66   L     185             1.0137618    1.130767015354    0.727158577316

     67   L     186             0.2700058    1.000000000000    1.000000000000

     68   D     187             0.8000000    1.000000000000

 C         

     69   S     188          3047.5248800    0.001834737132
     69   S     189           457.3695180    0.014037322813
     69   S     190           103.9486850    0.068842622264
     69   S     191            29.2101553    0.232184443216
     69   S     192             9.2866630    0.467941348435
     69   S     193             3.1639270    0.362311985337

     70   L     194             7.8682723   -0.119332419775    0.068999066591
     70   L     195             1.8812885   -0.160854151696    0.316423960957
     70   L     196             0.5442493    1.143456437840    0.744308290898

     71   L     197             0.1687145    1.000000000000    1.000000000000

     72   D     198             0.8000000    1.000000000000

 N         

     73   S     199          4173.5114600    0.001834772160
     73   S     200           627.4579110    0.013994627002
     73   S     201           142.9020930    0.068586551812
     73   S     202            40.2343293    0.232240873040
     73   S     203            12.8202129    0.469069948082
     73   S     204             4.3904370    0.360455199063

     74   L     205            11.6263619   -0.114961181702    0.067579743878
     74   L     206             2.7162798   -0.169117478561    0.323907295893
     74   L     207             0.7722184    1.145851947027    0.740895139755

     75   L     208             0.2120315    1.000000000000    1.000000000000

     76   D     209             0.8000000    1.000000000000

 C         

     77   S     210          3047.5248800    0.001834737132
     77   S     211           457.3695180    0.014037322813
     77   S     212           103.9486850    0.068842622264
     77   S     213            29.2101553    0.232184443216
     77   S     214             9.2866630    0.467941348435
     77   S     215             3.1639270    0.362311985337

     78   L     216             7.8682723   -0.119332419775    0.068999066591
     78   L     217             1.8812885   -0.160854151696    0.316423960957
     78   L     218             0.5442493    1.143456437840    0.744308290898

     79   L     219             0.1687145    1.000000000000    1.000000000000

     80   D     220             0.8000000    1.000000000000

 H         

     81   S     221            18.7311370    0.033494604338
     81   S     222             2.8253944    0.234726953484
     81   S     223             0.6401217    0.813757326146

     82   S     224             0.1612778    1.000000000000

 H         

     83   S     225            18.7311370    0.033494604338
     83   S     226             2.8253944    0.234726953484
     83   S     227             0.6401217    0.813757326146

     84   S     228             0.1612778    1.000000000000

 H         

     85   S     229            18.7311370    0.033494604338
     85   S     230             2.8253944    0.234726953484
     85   S     231             0.6401217    0.813757326146

     86   S     232             0.1612778    1.000000000000

 H         

     87   S     233            18.7311370    0.033494604338
     87   S     234             2.8253944    0.234726953484
     87   S     235             0.6401217    0.813757326146

     88   S     236             0.1612778    1.000000000000

 H         

     89   S     237            18.7311370    0.033494604338
     89   S     238             2.8253944    0.234726953484
     89   S     239             0.6401217    0.813757326146

     90   S     240             0.1612778    1.000000000000

 H         

     91   S     241            18.7311370    0.033494604338
     91   S     242             2.8253944    0.234726953484
     91   S     243             0.6401217    0.813757326146

     92   S     244             0.1612778    1.000000000000

 H         

     93   S     245            18.7311370    0.033494604338
     93   S     246             2.8253944    0.234726953484
     93   S     247             0.6401217    0.813757326146

     94   S     248             0.1612778    1.000000000000

 H         

     95   S     249            18.7311370    0.033494604338
     95   S     250             2.8253944    0.234726953484
     95   S     251             0.6401217    0.813757326146

     96   S     252             0.1612778    1.000000000000

 H         

     97   S     253            18.7311370    0.033494604338
     97   S     254             2.8253944    0.234726953484
     97   S     255             0.6401217    0.813757326146

     98   S     256             0.1612778    1.000000000000

 H         

     99   S     257            18.7311370    0.033494604338
     99   S     258             2.8253944    0.234726953484
     99   S     259             0.6401217    0.813757326146

    100   S     260             0.1612778    1.000000000000

 H         

    101   S     261            18.7311370    0.033494604338
    101   S     262             2.8253944    0.234726953484
    101   S     263             0.6401217    0.813757326146

    102   S     264             0.1612778    1.000000000000

 H         

    103   S     265            18.7311370    0.033494604338
    103   S     266             2.8253944    0.234726953484
    103   S     267             0.6401217    0.813757326146

    104   S     268             0.1612778    1.000000000000

 H         

    105   S     269            18.7311370    0.033494604338
    105   S     270             2.8253944    0.234726953484
    105   S     271             0.6401217    0.813757326146

    106   S     272             0.1612778    1.000000000000

 H         

    107   S     273            18.7311370    0.033494604338
    107   S     274             2.8253944    0.234726953484
    107   S     275             0.6401217    0.813757326146

    108   S     276             0.1612778    1.000000000000

 H         

    109   S     277            18.7311370    0.033494604338
    109   S     278             2.8253944    0.234726953484
    109   S     279             0.6401217    0.813757326146

    110   S     280             0.1612778    1.000000000000

 H         

    111   S     281            18.7311370    0.033494604338
    111   S     282             2.8253944    0.234726953484
    111   S     283             0.6401217    0.813757326146

    112   S     284             0.1612778    1.000000000000

 TOTAL NUMBER OF BASIS SET SHELLS             =  112
 NUMBER OF CARTESIAN GAUSSIAN BASIS FUNCTIONS =  332
 NUMBER OF ELECTRONS                          =  146
 CHARGE OF MOLECULE                           =    0
 SPIN MULTIPLICITY                            =    1
 NUMBER OF OCCUPIED ORBITALS (ALPHA)          =   73
 NUMBER OF OCCUPIED ORBITALS (BETA )          =   73
 TOTAL NUMBER OF ATOMS                        =   36
 THE NUCLEAR REPULSION ENERGY IS     1547.9320445069

 SELECTED MURRAY-HANDY-LAMING RADIAL GRID

 LEGACY BECKE'S FUZZY CELL METHOD

 SELECTED ORIGINAL BECKE'S PARTITION FUNCTION

     LEBEDEV GRID-BASED DFT OPTIONS
     ------------------------------
     DFTTYP=B3LYP   
     NRAD  =      96     NLEB  =     302
     NRAD0 =      24     NLEB0 =     110
     SWOFF =    5.00E-03 (PURE SCF -> DFT)
     SWITCH=    3.00E-04 (COARSE -> TIGHT GRID)
     THRESH=    0.00E+00 GTHRE=    1.00E+00

 GRIMME'S EMPIRICAL DISPERSION CORRECTION= T
  ________________________________

           DFTD3 V1.2             
   S.GRIMME, UNIVERSITY MUENSTER  
   WED MAR 10 08:38:00 CET 2010   
  ________________________________

 PLEASE CITE DFT-D3 WORK DONE WITH THIS CODE AS:
 S. GRIMME, J. ANTONY, S. EHRLICH AND H. KRIEG,
 J. CHEM. PHYS, 132 (2010), 154104.
 IF USED WITH BJ-DAMPING CITE ALSO
 S. GRIMME, S. EHRLICH AND L. GOERIGK,
 J. COMPUT. CHEM. 32 (2011), 1456-1465

 DFT-D3 PARAMETERS WILL BE LOADED AND PRINTED
 BEFORE THE RESULTS

 IMPLEMENTATION OF DFT-D IN GAMESS BY:
 R.PEVERATI AND K.K.BALDRIDGE, 
 J.CHEM.THEORY COMPUT. 4,(2008), 2030-2048


     $CONTRL OPTIONS
     ---------------
 SCFTYP=RHF          RUNTYP=ENERGY       EXETYP=RUN     
 MPLEVL=       0     CITYP =NONE         CCTYP =NONE         VBTYP =NONE    
 DFTTYP=B3LYP        TDDFT =NONE    
 MULT  =       1     ICHARG=       0     NZVAR =       0     COORD =UNIQUE  
 PP    =NONE         RELWFN=NONE         LOCAL =NONE         NUMGRD=       F
 ISPHER=      -1     NOSYM =       0     MAXIT =      30     UNITS =ANGS    
 PLTORB=       F     MOLPLT=       T     AIMPAC=       F     FRIEND=        
 NPRINT=       7     IREST =       0     GEOM  =INPUT   
 NORMF =       0     NORMP =       0     ITOL  =      20     ICUT  =       9
 INTTYP=BEST         GRDTYP=BEST         QMTTOL= 1.0E-06

     $SYSTEM OPTIONS
     ---------------
  REPLICATED MEMORY=    50000000 WORDS (ON EVERY NODE).
 DISTRIBUTED MEMDDI=         200 MILLION WORDS IN AGGREGATE,
 MEMDDI DISTRIBUTED OVER   8 PROCESSORS IS    25000000 WORDS/PROCESSOR.
 TOTAL MEMORY REQUESTED ON EACH PROCESSOR=    75000000 WORDS.
 TIMLIM=      525600.00 MINUTES, OR     365.0 DAYS.
 PARALL= T  BALTYP=  DLB     KDIAG=    0  COREFL= F
 MXSEQ2=     300 MXSEQ3=     150  mem10=         0  mem22=         0

     -----------------------------------
     INPUT FOR PCM SOLVATION CALCULATION 
     -----------------------------------
     IEF   =     -10
     ICOMP =       0     IFIELD=       0     ICAV  =       0
     IDISP =       0     IREP  =       0     IDP   =       0

     SOLVNT=WATER        EPS   = 78.3550     EPSINF=  1.7778
     VMOL  =  0.0000     TCE   =  0.00000000 STEN  =  0.0000
     DSTEN =  0.0000     CMF   =  0.0000     RSOLV =  0.0000

     NESFP =       0
     OMEGA = 40.0000     RET   =100.0000     FRO   =  0.7000

     TABS  =298.0000     IPRINT=       0

     --------------------------------
     INPUT FOR ITERATIVE C-PCM METHOD 
     --------------------------------
     IPCMIT  =         1     MXDIIS  =        50
     MXITR1  =        50     MXITR2  =        50
     THRES   = 0.100E-09     IMUL    =         3
     RCUT(1) =   15.0000     RCUT(2) =   30.0000

     IDIRCT  =         1
     IMGABI  =         0     RABI    =    4.0000
     IMGASC  =         0     RASC    =   20.0000
     THRSLS  = 0.500E-03     DENSLS  =    0.0100
     IEFPOL  =         1     REFPOL  =    0.0000

     ---------------------------------
     INPUT FOR AQUEOUS SMD CALCULATION 
     ---------------------------------
     EPS   = 78.3550

     INPUT FOR ISOTROPIC DIELECTRICS
     -------------------------------
     EPS=    78.36

     INPUT FOR CAVITY DEFINITION 
     ---------------------------
   ATOM               COORDINATES                RADIUS       EPS
      1      5.8485      0.5510      0.7864      1.8500     78.3550
      2      3.6469     -0.3702      1.1473      1.8900     78.3550
      3      4.9381     -0.1680      1.7817      1.8500     78.3550
      4      5.5998     -1.5260      2.1631      1.8500     78.3550
      5      4.7625     -2.3494      3.0887      1.8500     78.3550
      6      3.8487     -3.3124      2.7282      1.8500     78.3550
      7      3.2035     -3.8032      3.8444      1.8900     78.3550
      8      3.7111     -3.1759      4.9657      1.8500     78.3550
      9      3.4020     -3.3459      6.3188      1.8500     78.3550
     10      4.0770     -2.5547      7.2439      1.8500     78.3550
     11      5.0356     -1.6312      6.7978      1.8500     78.3550
     12      5.3625     -1.4455      5.4676      1.8500     78.3550
     13      4.6892     -2.2401      4.5211      1.8500     78.3550
     14      5.8918      0.1831     -0.3970      1.5200     78.3550
     15      5.6712     -0.8783      7.7401      1.7300     78.3550
     16      2.4661     -0.2663      1.8103      1.8500     78.3550
     17      2.3869      0.1429      2.9751      1.5200     78.3550
     18      1.2298     -0.6348      1.0140      1.8500     78.3550
     19      6.6167      1.5459      1.2705      1.8900     78.3550
     20      7.5645      2.2527      0.4149      1.8500     78.3550
     21      3.6703     -0.7042      0.1923      1.2000     78.3550
     22      4.7628      0.4235      2.6827      1.2000     78.3550
     23      6.5804     -1.3170      2.6105      1.2000     78.3550
     24      5.7884     -2.0697      1.2302      1.2000     78.3550
     25      3.6045     -3.6911      1.7446      1.2000     78.3550
     26      2.5840     -4.6024      3.8515      1.2000     78.3550
     27      2.6579     -4.0681      6.6431      1.2000     78.3550
     28      3.8809     -2.6395      8.3081      1.2000     78.3550
     29      6.1136     -0.7141      5.1845      1.2000     78.3550
     30      0.5446     -1.1810      1.6682      1.2000     78.3550
     31      1.4459     -1.2437      0.1307      1.2000     78.3550
     32      0.7234      0.2825      0.6909      1.2000     78.3550
     33      6.5221      1.8358      2.2352      1.2000     78.3550
     34      8.3018      1.5595     -0.0022      1.2000     78.3550
     35      8.0828      3.0065      1.0101      1.2000     78.3550
     36      7.0472      2.7477     -0.4135      1.2000     78.3550

     ----------------------------
     INPUT FOR TESSERA DEFINITION
     ----------------------------
     NTSALL  =        60     MTHALL  =         4
     MTHAUT  =         0     AUTFRE  =    2.0000
     NTSFRZ  =        60     KEEPSM  =         0
     AREAKP  =   10.0000     BONDRY  =    1.0000
     AREATL  =    0.0100

     SPHERE     INITS       METHOD
          1        60       FIXPVA
          2        60       FIXPVA
          3        60       FIXPVA
          4        60       FIXPVA
          5        60       FIXPVA
          6        60       FIXPVA
          7        60       FIXPVA
          8        60       FIXPVA
          9        60       FIXPVA
         10        60       FIXPVA
         11        60       FIXPVA
         12        60       FIXPVA
         13        60       FIXPVA
         14        60       FIXPVA
         15        60       FIXPVA
         16        60       FIXPVA
         17        60       FIXPVA
         18        60       FIXPVA
         19        60       FIXPVA
         20        60       FIXPVA
         21        60       FIXPVA
         22        60       FIXPVA
         23        60       FIXPVA
         24        60       FIXPVA
         25        60       FIXPVA
         26        60       FIXPVA
         27        60       FIXPVA
         28        60       FIXPVA
         29        60       FIXPVA
         30        60       FIXPVA
         31        60       FIXPVA
         32        60       FIXPVA
         33        60       FIXPVA
         34        60       FIXPVA
         35        60       FIXPVA
         36        60       FIXPVA

     ------------------------------
      FIXPVA TESSELLATION FOR PCM
         PEIFENG SU AND HUI LI
     UNIVERSITY OF NEBRASKA-LINCOLN
     ------------------------------


 PCM DIMENSIONS: MXSP=  2000, MXTS=      1440, MEMORY=         53683

     INPUT FOR POTENTIAL-DERIVED CHARGES 
     -----------------------------------
     VDWSCL=    1.40   RMAX=    3.00   DELR=    0.80
     VDWINC=    0.20 PTDENS=    0.28
     LAYER =       4  NFREQ=      30 MAXPDC=   10000
     CONSTR=CHARGE    UNITS=ANGS      PTSEL=CONNOLLY
     CENTER=  0.0000  0.0000  0.0000
     DPOLE =  0.0000  0.0000  0.0000
     QPOLE =  0.0000  0.0000  0.0000  0.0000  0.0000  0.0000


 Using Gaussians for PCM contribution to MEP, params: 0.10000E+01 0.10000E-07

          ----------------
          PROPERTIES INPUT
          ----------------

     MOMENTS            FIELD           POTENTIAL          DENSITY
 IEMOM =       1   IEFLD =       0   IEPOT =       1   IEDEN =       0
 WHERE =COMASS     WHERE =NUCLEI     WHERE =PDC        WHERE =NUCLEI  
 OUTPUT=BOTH       OUTPUT=BOTH       OUTPUT=PUNCH      OUTPUT=BOTH    
 IEMINT=       0   IEFINT=       0                     IEDINT=       0
                                                       MORB  =       0
          EXTRAPOLATION IN EFFECT
          DIIS IN EFFECT
 ORBITAL PRINTING OPTION: NPREO=     1   332     2     1

     -------------------------------
     INTEGRAL TRANSFORMATION OPTIONS
     -------------------------------
     NWORD  =            0
     CUTOFF = 1.0E-09     MPTRAN =       0
     DIRTRF =       F     AOINTS =DUP     

          ----------------------
          INTEGRAL INPUT OPTIONS
          ----------------------
 NOPK  =       1 NORDER=       0 SCHWRZ=       T

     ------------------------------------------
     THE POINT GROUP IS C1 , NAXIS= 1, ORDER= 1
     ------------------------------------------

     DIMENSIONS OF THE SYMMETRY SUBSPACES ARE
 A   =  332

 ..... DONE SETTING UP THE RUN .....
 CPU     0: STEP CPU TIME=     0.03 TOTAL CPU TIME=          0.0 (      0.0 MIN)
 TOTAL WALL CLOCK TIME=          0.0 SECONDS, CPU UTILIZATION IS    76.65%

          ********************
          1 ELECTRON INTEGRALS
          ********************
 ...... END OF ONE-ELECTRON INTEGRALS ......
 CPU     0: STEP CPU TIME=     0.01 TOTAL CPU TIME=          0.0 (      0.0 MIN)
 TOTAL WALL CLOCK TIME=          0.1 SECONDS, CPU UTILIZATION IS    65.83%

          -------------
          GUESS OPTIONS
          -------------
          GUESS =HUCKEL            NORB  =       0          NORDER=       0
          MIX   =       F          PRTMO =       F          PUNMO =       F
          TOLZ  = 1.0E-08          TOLE  = 1.0E-05
          SYMDEN=       F          PURIFY=       F

 INITIAL GUESS ORBITALS GENERATED BY HUCKEL   ROUTINE.
 HUCKEL GUESS REQUIRES    879276 WORDS.

 SYMMETRIES FOR INITIAL GUESS ORBITALS FOLLOW.   BOTH SET(S).
    73 ORBITALS ARE OCCUPIED (   20 CORE ORBITALS).
    21=A       22=A       23=A       24=A       25=A       26=A       27=A   
    28=A       29=A       30=A       31=A       32=A       33=A       34=A   
    35=A       36=A       37=A       38=A       39=A       40=A       41=A   
    42=A       43=A       44=A       45=A       46=A       47=A       48=A   
    49=A       50=A       51=A       52=A       53=A       54=A       55=A   
    56=A       57=A       58=A       59=A       60=A       61=A       62=A   
    63=A       64=A       65=A       66=A       67=A       68=A       69=A   
    70=A       71=A       72=A       73=A       74=A       75=A       76=A   
    77=A       78=A       79=A       80=A       81=A       82=A       83=A   
 ...... END OF INITIAL ORBITAL SELECTION ......
 CPU     0: STEP CPU TIME=     0.10 TOTAL CPU TIME=          0.2 (      0.0 MIN)
 TOTAL WALL CLOCK TIME=          0.2 SECONDS, CPU UTILIZATION IS    64.05%

                    ----------------------
                    AO INTEGRAL TECHNOLOGY
                    ----------------------
     S,P,L SHELL ROTATED AXIS INTEGRALS, REPROGRAMMED BY
        KAZUYA ISHIMURA (IMS) AND JOSE SIERRA (SYNSTAR).
     S,P,D,L SHELL ROTATED AXIS INTEGRALS PROGRAMMED BY
        KAZUYA ISHIMURA (INSTITUTE FOR MOLECULAR SCIENCE).
     S,P,D,F,G SHELL TO TOTAL QUARTET ANGULAR MOMENTUM SUM 5,
        ERIC PROGRAM BY GRAHAM FLETCHER (ELORET AND NASA ADVANCED
        SUPERCOMPUTING DIVISION, AMES RESEARCH CENTER).
     S,P,D,F,G,L SHELL GENERAL RYS QUADRATURE PROGRAMMED BY
        MICHEL DUPUIS (PACIFIC NORTHWEST NATIONAL LABORATORY).

          --------------------
          2 ELECTRON INTEGRALS
          --------------------

 THE -PK- OPTION IS OFF, THE INTEGRALS ARE NOT IN SUPERMATRIX FORM.
 STORING   15000 INTEGRALS/RECORD ON DISK, USING 16 BYTES/INTEGRAL.
 TWO ELECTRON INTEGRAL EVALUATION REQUIRES   96724 WORDS OF MEMORY.
 SCHWARZ INEQUALITY OVERHEAD:     45030 INTEGRALS, T=        0.00
 II,JST,KST,LST =  1  1  1  1 NREC =         1 INTLOC =    1
 II,JST,KST,LST =  2  1  1  1 NREC =         1 INTLOC =    1
 II,JST,KST,LST =  3  1  1  1 NREC =         1 INTLOC =    1
 II,JST,KST,LST =  4  1  1  1 NREC =         1 INTLOC =    1
 II,JST,KST,LST =  5  1  1  1 NREC =         1 INTLOC =  625
 II,JST,KST,LST =  6  1  1  1 NREC =         1 INTLOC =  625
 II,JST,KST,LST =  7  1  1  1 NREC =         1 INTLOC =  625
 II,JST,KST,LST =  8  1  1  1 NREC =         1 INTLOC = 8443
 II,JST,KST,LST =  9  1  1  1 NREC =         2 INTLOC = 9688
 II,JST,KST,LST = 10  1  1  1 NREC =         2 INTLOC = 9688
 II,JST,KST,LST = 11  1  1  1 NREC =         3 INTLOC =14177
 II,JST,KST,LST = 12  1  1  1 NREC =         5 INTLOC =10607
 II,JST,KST,LST = 13  1  1  1 NREC =         8 INTLOC = 5246
 II,JST,KST,LST = 14  1  1  1 NREC =         8 INTLOC = 5246
 II,JST,KST,LST = 15  1  1  1 NREC =        11 INTLOC = 8745
 II,JST,KST,LST = 16  1  1  1 NREC =        17 INTLOC = 4223
 II,JST,KST,LST = 17  1  1  1 NREC =        25 INTLOC =10440
 II,JST,KST,LST = 18  1  1  1 NREC =        25 INTLOC =10440
 II,JST,KST,LST = 19  1  1  1 NREC =        32 INTLOC = 5978
 II,JST,KST,LST = 20  1  1  1 NREC =        39 INTLOC = 4964
 II,JST,KST,LST = 21  1  1  1 NREC =        58 INTLOC = 1604
 II,JST,KST,LST = 22  1  1  1 NREC =        58 INTLOC = 1604
 II,JST,KST,LST = 23  1  1  1 NREC =        70 INTLOC = 7776
 II,JST,KST,LST = 24  1  1  1 NREC =        78 INTLOC =10210
 II,JST,KST,LST = 25  1  1  1 NREC =        87 INTLOC = 8986
 II,JST,KST,LST = 26  1  1  1 NREC =        88 INTLOC =14956
 II,JST,KST,LST = 27  1  1  1 NREC =        96 INTLOC =11059
 II,JST,KST,LST = 28  1  1  1 NREC =       110 INTLOC = 4565
 II,JST,KST,LST = 29  1  1  1 NREC =       122 INTLOC =13985
 II,JST,KST,LST = 30  1  1  1 NREC =       129 INTLOC = 4427
 II,JST,KST,LST = 31  1  1  1 NREC =       142 INTLOC =  247
 II,JST,KST,LST = 32  1  1  1 NREC =       156 INTLOC =10383
 II,JST,KST,LST = 33  1  1  1 NREC =       183 INTLOC = 2579
 II,JST,KST,LST = 34  1  1  1 NREC =       183 INTLOC = 2579
 II,JST,KST,LST = 35  1  1  1 NREC =       191 INTLOC = 7221
 II,JST,KST,LST = 36  1  1  1 NREC =       219 INTLOC = 3894
 II,JST,KST,LST = 37  1  1  1 NREC =       247 INTLOC = 5198
 II,JST,KST,LST = 38  1  1  1 NREC =       247 INTLOC = 5198
 II,JST,KST,LST = 39  1  1  1 NREC =       258 INTLOC = 8638
 II,JST,KST,LST = 40  1  1  1 NREC =       286 INTLOC = 6868
 II,JST,KST,LST = 41  1  1  1 NREC =       305 INTLOC =14507
 II,JST,KST,LST = 42  1  1  1 NREC =       310 INTLOC = 6400
 II,JST,KST,LST = 43  1  1  1 NREC =       345 INTLOC = 3173
 II,JST,KST,LST = 44  1  1  1 NREC =       372 INTLOC =   51
 II,JST,KST,LST = 45  1  1  1 NREC =       399 INTLOC =13540
 II,JST,KST,LST = 46  1  1  1 NREC =       411 INTLOC =  207
 II,JST,KST,LST = 47  1  1  1 NREC =       454 INTLOC =12513
 II,JST,KST,LST = 48  1  1  1 NREC =       506 INTLOC =13578
 II,JST,KST,LST = 49  1  1  1 NREC =       588 INTLOC =10490
 II,JST,KST,LST = 50  1  1  1 NREC =       597 INTLOC = 2967
 II,JST,KST,LST = 51  1  1  1 NREC =       645 INTLOC =12972
 II,JST,KST,LST = 52  1  1  1 NREC =       722 INTLOC = 3439
 II,JST,KST,LST = 53  1  1  1 NREC =       872 INTLOC =14270
 II,JST,KST,LST = 54  1  1  1 NREC =       872 INTLOC =14270
 II,JST,KST,LST = 55  1  1  1 NREC =       898 INTLOC = 5227
 II,JST,KST,LST = 56  1  1  1 NREC =       953 INTLOC = 3502
 II,JST,KST,LST = 57  1  1  1 NREC =      1027 INTLOC = 4745
 II,JST,KST,LST = 58  1  1  1 NREC =      1027 INTLOC = 4745
 II,JST,KST,LST = 59  1  1  1 NREC =      1059 INTLOC =12809
 II,JST,KST,LST = 60  1  1  1 NREC =      1118 INTLOC = 5465
 II,JST,KST,LST = 61  1  1  1 NREC =      1197 INTLOC =13194
 II,JST,KST,LST = 62  1  1  1 NREC =      1197 INTLOC =13194
 II,JST,KST,LST = 63  1  1  1 NREC =      1256 INTLOC = 9838
 II,JST,KST,LST = 64  1  1  1 NREC =      1383 INTLOC =12061
 II,JST,KST,LST = 65  1  1  1 NREC =      1436 INTLOC = 9832
 II,JST,KST,LST = 66  1  1  1 NREC =      1446 INTLOC = 7355
 II,JST,KST,LST = 67  1  1  1 NREC =      1529 INTLOC = 6257
 II,JST,KST,LST = 68  1  1  1 NREC =      1600 INTLOC =13015
 II,JST,KST,LST = 69  1  1  1 NREC =      1740 INTLOC =14375
 II,JST,KST,LST = 70  1  1  1 NREC =      1740 INTLOC =14375
 II,JST,KST,LST = 71  1  1  1 NREC =      1820 INTLOC = 9060
 II,JST,KST,LST = 72  1  1  1 NREC =      1925 INTLOC = 9749
 II,JST,KST,LST = 73  1  1  1 NREC =      2021 INTLOC =14711
 II,JST,KST,LST = 74  1  1  1 NREC =      2026 INTLOC =13286
 II,JST,KST,LST = 75  1  1  1 NREC =      2090 INTLOC = 6599
 II,JST,KST,LST = 76  1  1  1 NREC =      2175 INTLOC = 1266
 II,JST,KST,LST = 77  1  1  1 NREC =      2264 INTLOC =10646
 II,JST,KST,LST = 78  1  1  1 NREC =      2268 INTLOC = 7375
 II,JST,KST,LST = 79  1  1  1 NREC =      2309 INTLOC =14049
 II,JST,KST,LST = 80  1  1  1 NREC =      2409 INTLOC =10594
 II,JST,KST,LST = 81  1  1  1 NREC =      2529 INTLOC = 9602
 II,JST,KST,LST = 82  1  1  1 NREC =      2545 INTLOC =10966
 II,JST,KST,LST = 83  1  1  1 NREC =      2592 INTLOC = 3991
 II,JST,KST,LST = 84  1  1  1 NREC =      2630 INTLOC =  751
 II,JST,KST,LST = 85  1  1  1 NREC =      2690 INTLOC =  426
 II,JST,KST,LST = 86  1  1  1 NREC =      2724 INTLOC =  234
 II,JST,KST,LST = 87  1  1  1 NREC =      2781 INTLOC = 2576
 II,JST,KST,LST = 88  1  1  1 NREC =      2815 INTLOC =13540
 II,JST,KST,LST = 89  1  1  1 NREC =      2874 INTLOC = 4930
 II,JST,KST,LST = 90  1  1  1 NREC =      2904 INTLOC = 4832
 II,JST,KST,LST = 91  1  1  1 NREC =      2956 INTLOC =12887
 II,JST,KST,LST = 92  1  1  1 NREC =      2981 INTLOC = 2263
 II,JST,KST,LST = 93  1  1  1 NREC =      3031 INTLOC = 4651
 II,JST,KST,LST = 94  1  1  1 NREC =      3052 INTLOC =  104
 II,JST,KST,LST = 95  1  1  1 NREC =      3095 INTLOC = 7934
 II,JST,KST,LST = 96  1  1  1 NREC =      3117 INTLOC =14877
 II,JST,KST,LST = 97  1  1  1 NREC =      3153 INTLOC = 1231
 II,JST,KST,LST = 98  1  1  1 NREC =      3184 INTLOC = 7553
 II,JST,KST,LST = 99  1  1  1 NREC =      3244 INTLOC =11263
 II,JST,KST,LST =100  1  1  1 NREC =      3267 INTLOC = 5743
 II,JST,KST,LST =101  1  1  1 NREC =      3315 INTLOC = 9389
 II,JST,KST,LST =102  1  1  1 NREC =      3335 INTLOC = 1117
 II,JST,KST,LST =103  1  1  1 NREC =      3373 INTLOC = 4190
 II,JST,KST,LST =104  1  1  1 NREC =      3393 INTLOC =12084
 II,JST,KST,LST =105  1  1  1 NREC =      3429 INTLOC = 8304
 II,JST,KST,LST =106  1  1  1 NREC =      3455 INTLOC = 8141
 II,JST,KST,LST =107  1  1  1 NREC =      3505 INTLOC =12648
 II,JST,KST,LST =108  1  1  1 NREC =      3526 INTLOC =13335
 II,JST,KST,LST =109  1  1  1 NREC =      3555 INTLOC =10316
 II,JST,KST,LST =110  1  1  1 NREC =      3568 INTLOC =13832
 II,JST,KST,LST =111  1  1  1 NREC =      3594 INTLOC = 6027
 II,JST,KST,LST =112  1  1  1 NREC =      3611 INTLOC =13685
 SCHWARZ INEQUALITY TEST SKIPPED    14403260 INTEGRAL BLOCKS.
 TOTAL NUMBER OF NONZERO TWO-ELECTRON INTEGRALS =           405709224
      27050 INTEGRAL RECORDS WERE STORED ON DISK FILE  8.
  ...... END OF TWO-ELECTRON INTEGRALS .....
 CPU     0: STEP CPU TIME=     1.92 TOTAL CPU TIME=          2.1 (      0.0 MIN)
 TOTAL WALL CLOCK TIME=          2.2 SECONDS, CPU UTILIZATION IS    95.51%

          --------------------------
             R-B3LYP SCF CALCULATION
          --------------------------

     NUCLEAR ENERGY =      1547.9320445069
     MAXIT =   30     NPUNCH=    2
     EXTRAP=T  DAMP=F  SHIFT=F  RSTRCT=F  DIIS=T  DEM=F  SOSCF=F
         DENSITY MATRIX CONVERGENCE THRESHOLD=  1.00E-05
     COARSE -> FINE DFT GRID SWITCH THRESHOLD=  3.00E-04 (SWITCH IN $DFT)
                   HF -> DFT SWITCH THRESHOLD=  5.00E-03 (SWOFF IN $DFT)
     MEMORY REQUIRED FOR RHF ITERS=   2005026 WORDS.

 DFT CODE IS SWITCHING FROM THE FINE GRID NRAD= 96,  NLEB=  302
                      TO THE COARSE GRID NRAD0= 24, NLEB0=  110

     EXCHANGE FUNCTIONAL   =B88&HFX   
     CORRELATION FUNCTIONAL=LYP88&VWN5
     DFT THRESHOLD         =.383E-08
     GRID CHANGE THRESHOLD =.300E-03
 FOR AN EULER-MACLAURIN QUADRATURE USING  96 RADIAL POINTS:
 SMALLEST GAUSSIAN PRIMITIVE EXPONENT=        0.1612777588 OF TYPE -S-
 ON ATOM NUMBER  21 HAS RADIAL NORMALIZATION=  1.000000
  LARGEST GAUSSIAN PRIMITIVE EXPONENT=     7001.7130900000 OF TYPE -S-
 ON ATOM NUMBER  15 HAS RADIAL NORMALIZATION=  1.000000
 DFT IS SWITCHED OFF, PERFORMING PURE SCF UNTIL SWOFF THRESHOLD IS REACHED.

 ITER EX DEM     TOTAL ENERGY        E CHANGE  DENSITY CHANGE    DIIS ERROR
   1  0  0     -949.2900872705  -949.2900872705   0.346713806   0.768160151
          * * *   INITIATING DIIS PROCEDURE   * * *
   2  1  0     -951.6194480717    -2.3293608012   0.259695384   0.130237629
   3  2  0     -951.8150302608    -0.1955821891   0.137287113   0.098082042
   4  3  0     -952.0043181285    -0.1892878677   0.018826298   0.006021197
   5  4  0     -952.0078046863    -0.0034865578   0.006397462   0.002384785
   6  5  0     -952.0081828500    -0.0003781637   0.002139122   0.000943833
 CONVERGED TO SWOFF, SO DFT CALCULATION IS NOW SWITCHED ON.
          * * *   INITIATING DIIS PROCEDURE   * * *
   7  6  0     -957.0440586641    -5.0358758141   0.247966560   0.075329014
   8  7  0     -957.1364393957    -0.0923807317   0.065540813   0.025885343
   9  8  0     -957.1264439088     0.0099954870   0.059137461   0.035608465
  10  9  0     -957.1519028931    -0.0254589843   0.016011384   0.008275421
  11 10  0     -957.1535769342    -0.0016740411   0.002769293   0.001537728
  12 11  0     -957.1536331737    -0.0000562395   0.000685444   0.000475016
  13 12  0     -957.1536375632    -0.0000043894   0.000129294   0.000087649
 DFT CODE IS SWITCHING BACK TO THE FINE GRID
          * * *   INITIATING DIIS PROCEDURE   * * *
  14 13  0     -957.1571508431    -0.0035132799   0.003989976   0.001333129
  15 14  0     -957.1572292450    -0.0000784020   0.002032343   0.000803057
  16 15  0     -957.1572249844     0.0000042607   0.001133974   0.000893420
  17 16  0     -957.1572369060    -0.0000119216   0.000204948   0.000133840
  18 17  0     -957.1572371910    -0.0000002850   0.000062560   0.000046744
  19 18  0     -957.1572372525    -0.0000000614   0.000010889   0.000005836
  20 19  0     -957.1572372537    -0.0000000013   0.000006733   0.000003163
  21 20  0     -957.1572372539    -0.0000000002   0.000002420   0.000001948

          -----------------
          DENSITY CONVERGED
          -----------------
     TIME TO FORM FOCK OPERATORS=      51.5 SECONDS (       2.5 SEC/ITER)
     TIME TO SOLVE SCF EQUATIONS=       0.8 SECONDS (       0.0 SEC/ITER)

          ----------------------------
          DFT-D PARAMETERS AND RESULTS
          ----------------------------
 C6 COEFFICIENTS USED:
       2 C6 FOR ELEMENT   1
  Z=  1 CN= 0.912     C6(AA)=    3.03
  Z=  1 CN= 0.000     C6(AA)=    7.59
       5 C6 FOR ELEMENT   6
  Z=  6 CN= 0.000     C6(AA)=   49.11
  Z=  6 CN= 0.987     C6(AA)=   43.25
  Z=  6 CN= 1.998     C6(AA)=   29.36
  Z=  6 CN= 2.999     C6(AA)=   25.78
  Z=  6 CN= 3.984     C6(AA)=   18.21
       4 C6 FOR ELEMENT   7
  Z=  7 CN= 0.000     C6(AA)=   25.27
  Z=  7 CN= 0.994     C6(AA)=   22.12
  Z=  7 CN= 2.014     C6(AA)=   19.68
  Z=  7 CN= 2.990     C6(AA)=   15.58
       3 C6 FOR ELEMENT   8
  Z=  8 CN= 0.000     C6(AA)=   15.51
  Z=  8 CN= 0.993     C6(AA)=   12.82
  Z=  8 CN= 1.989     C6(AA)=   10.37
       2 C6 FOR ELEMENT   9
  Z=  9 CN= 0.000     C6(AA)=    9.69
  Z=  9 CN= 0.998     C6(AA)=    7.13

 #          XYZ [AU]             R0(AA) [ANG.]  CN         C6(AA)     C8(AA)   C10(AA) [AU]
  1  11.05206   1.04124   1.48608    6  1.455  3.141        25.3       731.8     25927.0
  2   6.89164  -0.69958   2.16808    7  1.311  3.150        15.6       344.3      9303.9
  3   9.33166  -0.31747   3.36692    6  1.455  4.128        18.3       527.8     18700.9
  4  10.58209  -2.88372   4.08767    6  1.455  4.100        18.3       528.1     18711.8
  5   8.99982  -4.43972   5.83680    6  1.455  3.273        24.5       709.3     25128.2
  6   7.27299  -6.25953   5.15555    6  1.455  3.323        24.0       695.4     24638.3
  7   6.05374  -7.18701   7.26486    7  1.311  3.220        15.6       344.1      9297.9
  8   7.01296  -6.00158   9.38381    6  1.455  3.396        23.2       669.9     23734.3
  9   6.42885  -6.32283  11.94080    6  1.455  3.136        25.3       732.3     25945.8
 10   7.70441  -4.82768  13.68899    6  1.455  3.154        25.2       730.3     25872.5
 11   9.51590  -3.08252  12.84598    6  1.455  3.150        25.3       730.8     25891.2
 12  10.13366  -2.73160  10.33227    6  1.455  3.158        25.2       729.8     25856.7
 13   8.86130  -4.23318   8.54364    6  1.455  3.392        23.2       671.5     23791.7
[...]
   15    0.0000001  -0.0000000   0.0000777   0.0032978  -0.0407436
   16    0.0046207  -0.0002294   0.0001018   0.0000053  -0.0000001
   17   -0.0006974  -0.0001824   0.0003189   0.0000216  -0.0000037
   18    0.0000631  -0.0000198  -0.0000224  -0.0000000   0.0000000
   19   -0.0000012  -0.0000000   0.0000000   0.0000000   0.0000000
   20    0.0000000   0.0000000   0.0000000  -0.0000000   0.0000000
   21    0.0000916  -0.0000013  -0.0000028   0.0000000   0.0000000
   22   -0.0000574   0.0000047  -0.0000889  -0.0000010  -0.0000007
   23    0.0041793  -0.0000524  -0.0003046  -0.0000077   0.0000027
   24   -0.0040301   0.0000036  -0.0000527   0.0000039  -0.0000001
   25    0.3695824  -0.0455162   0.0048347  -0.0001150   0.0000013
   26   -0.0264248   0.3214075  -0.0251474  -0.0039399  -0.0000407
   27   -0.0000166  -0.0051574  -0.0310176   0.3551982  -0.0368852
   28    0.0000029  -0.0000846   0.0029175  -0.0356300   0.3522617
   29   -0.0001202  -0.0000703   0.0048556  -0.0002516   0.0062494
   30    0.0000344   0.0000689   0.0000018  -0.0000001  -0.0000000
   31    0.0001199  -0.0000065  -0.0000010  -0.0000000   0.0000000
   32    0.0000175   0.0000001  -0.0000000  -0.0000000   0.0000000
   33    0.0000002   0.0000000   0.0000000  -0.0000000   0.0000000
   34    0.0000000  -0.0000000  -0.0000000   0.0000000  -0.0000000
   35   -0.0000000   0.0000000   0.0000000  -0.0000000  -0.0000000
   36   -0.0000000   0.0000000  -0.0000000  -0.0000000   0.0000000

            11          12          13          14          15

   11    4.5230364
   12    0.4596453   5.4602527
   13    0.0180066   0.3734346   4.8612790
   14    0.0000000   0.0000001  -0.0000024   8.2084441
   15    0.2769441  -0.0394269   0.0030370  -0.0000000   9.1268193
   16   -0.0000003  -0.0000575   0.0000349   0.0003682   0.0000000
   17   -0.0000030  -0.0000899   0.0013230  -0.0000030   0.0000000
   18   -0.0000000  -0.0000004   0.0000414  -0.0000193   0.0000000
   19   -0.0000000  -0.0000051  -0.0000014  -0.1016807  -0.0000000
   20   -0.0000000  -0.0000000   0.0000001   0.0092377   0.0000000
   21    0.0000000   0.0000007  -0.0000033   0.0198535  -0.0000000
   22   -0.0000001   0.0013791   0.0019199   0.0027330  -0.0000001
   23    0.0000251   0.0042613  -0.0063694  -0.0001757   0.0000000
   24    0.0000011   0.0000067   0.0030486   0.0076631  -0.0000000
   25    0.0000028  -0.0001320   0.0037931  -0.0000002  -0.0000000
   26   -0.0000107  -0.0000705   0.0062617   0.0000000  -0.0000000
   27    0.0029741   0.0003073   0.0042217   0.0000000  -0.0000176
   28   -0.0340680   0.0065111   0.0002713   0.0000000  -0.0007045
   29   -0.0369629   0.3480182  -0.0371914   0.0000000  -0.0013098
   30    0.0000000  -0.0000000  -0.0000023   0.0000000  -0.0000000
   31    0.0000000   0.0000000  -0.0000010  -0.0000084  -0.0000000
   32    0.0000000  -0.0000000  -0.0000005  -0.0000001  -0.0000000
   33    0.0000000  -0.0000024  -0.0000013   0.0030442   0.0000000
   34    0.0000000   0.0000000  -0.0000000   0.0038304  -0.0000000
   35   -0.0000000  -0.0000000   0.0000000   0.0005862   0.0000000
   36   -0.0000000  -0.0000000   0.0000000   0.0035277   0.0000000

            16          17          18          19          20

   16    4.2588791
   17    0.5660537   8.1913061
   18    0.3616882  -0.0805146   5.3016671
   19   -0.0000839  -0.0000102  -0.0000004   7.0250252
   20   -0.0000001   0.0000001  -0.0000000   0.2535004   4.9534090
   21   -0.0125965   0.0028795  -0.0010025   0.0008870  -0.0000273
   22    0.0004904   0.0199386   0.0009784   0.0024098  -0.0000658
   23    0.0001086  -0.0000357   0.0000037   0.0027194  -0.0000625
   24   -0.0001288  -0.0000278  -0.0000013   0.0004793  -0.0000163
   25    0.0001012   0.0000034   0.0001273   0.0000000   0.0000000
   26   -0.0000076  -0.0000039   0.0000012  -0.0000000  -0.0000000
   27    0.0000001   0.0000003  -0.0000000  -0.0000000  -0.0000000
   28    0.0000000  -0.0000000   0.0000000   0.0000000   0.0000000
   29   -0.0000023  -0.0000029  -0.0000000   0.0000079  -0.0000001
   30   -0.0222051   0.0018650   0.3613037   0.0000000  -0.0000000
   31   -0.0238729   0.0030759   0.3464151  -0.0000000   0.0000000
   32   -0.0197040   0.0002731   0.3603151  -0.0000001   0.0000000
   33   -0.0000249  -0.0000174  -0.0000001   0.3093978  -0.0277907
   34   -0.0000000  -0.0000000  -0.0000000  -0.0423361   0.3861072
   35   -0.0000000   0.0000000   0.0000000  -0.0277715   0.3736346
   36    0.0000002   0.0000000   0.0000000  -0.0415203   0.3860391

            21          22          23          24          25

   21    0.3750385
   22    0.0049697   0.5488284
   23   -0.0000477  -0.0020540   0.5702975
   24    0.0030054   0.0050852  -0.0284128   0.5599660
   25    0.0001431   0.0000212  -0.0000317   0.0029514   0.5155177
   26    0.0000000  -0.0000001   0.0000037  -0.0000037  -0.0018386
   27   -0.0000000  -0.0000000   0.0000000  -0.0000000   0.0000001
   28   -0.0000000  -0.0000000  -0.0000000  -0.0000000  -0.0000000
   29   -0.0000000   0.0003190   0.0020426  -0.0000628  -0.0000023
   30   -0.0000992  -0.0000139  -0.0000003  -0.0000003  -0.0000072
   31    0.0022883  -0.0000476   0.0000003   0.0000035   0.0001074
   32    0.0000680  -0.0000044   0.0000001   0.0000003   0.0000009
   33   -0.0000343   0.0028696   0.0000944  -0.0000214  -0.0000000
   34   -0.0000031   0.0000003  -0.0000251   0.0000038  -0.0000000
   35   -0.0000004  -0.0000254  -0.0000031  -0.0000006  -0.0000000
   36    0.0000024  -0.0000101   0.0000051  -0.0000020   0.0000000

            26          27          28          29          30

   26    0.3487369
   27    0.0021198   0.5445528
   28   -0.0000011  -0.0048379   0.5508708
   29    0.0000032   0.0000134  -0.0001329   0.5606825
   30    0.0000014   0.0000000  -0.0000000   0.0000000   0.5113867
   31    0.0000003  -0.0000000  -0.0000000   0.0000000  -0.0239632
   32   -0.0000000   0.0000000  -0.0000000  -0.0000000  -0.0222384
   33    0.0000000   0.0000000  -0.0000000   0.0000535   0.0000000
   34    0.0000000   0.0000000  -0.0000000  -0.0000000   0.0000000
   35    0.0000000  -0.0000000  -0.0000000  -0.0000000  -0.0000000
   36   -0.0000000  -0.0000000   0.0000000   0.0000000  -0.0000000

            31          32          33          34          35

   31    0.5399857
   32   -0.0227882   0.5052003
   33    0.0000000   0.0000000   0.3536139
   34    0.0000000   0.0000000   0.0025573   0.5328190
   35   -0.0000000  -0.0000000  -0.0038700  -0.0266314   0.5238724
   36    0.0000000  -0.0000000   0.0024142  -0.0370612  -0.0271016

            36

   36    0.5338942

          TOTAL MULLIKEN AND LOWDIN ATOMIC POPULATIONS
       ATOM         MULL.POP.    CHARGE          LOW.POP.     CHARGE
    1 C             5.370414    0.629586         5.839721    0.160279
    2 N             7.586605   -0.586605         7.246921   -0.246921
    3 C             6.053554   -0.053554         6.083454   -0.083454
    4 C             6.364956   -0.364956         6.273416   -0.273416
    5 C             5.936846    0.063154         6.075191   -0.075191
    6 C             6.012412   -0.012412         6.122895   -0.122895
    7 N             7.684712   -0.684712         7.187701   -0.187701
    8 C             5.703647    0.296353         5.983623    0.016377
    9 C             6.187036   -0.187036         6.176701   -0.176701
   10 C             6.247727   -0.247727         6.208746   -0.208746
   11 C             5.638973    0.361027         5.878188    0.121812
   12 C             6.313708   -0.313708         6.210874   -0.210874
   13 C             5.915037    0.084963         6.031290   -0.031290
   14 O             8.616792   -0.616792         8.392919   -0.392919
   15 F             9.327955   -0.327955         9.169398   -0.169398
   16 C             5.385991    0.614009         5.827846    0.172154
   17 O             8.607096   -0.607096         8.398688   -0.398688
   18 C             6.550252   -0.550252         6.474497   -0.474497
   19 N             7.586193   -0.586193         7.245269   -0.245269
   20 C             6.315330   -0.315330         6.355511   -0.355511
   21 H             0.644626    0.355374         0.702189    0.297811
   22 H             0.822700    0.177300         0.829978    0.170022
   23 H             0.834418    0.165582         0.837708    0.162292
   24 H             0.832079    0.167921         0.835070    0.164930
   25 H             0.815212    0.184788         0.818463    0.181537
   26 H             0.624230    0.375770         0.680996    0.319004
   27 H             0.831242    0.168758         0.822052    0.177948
   28 H             0.837380    0.162620         0.822848    0.177152
   29 H             0.841894    0.158106         0.823230    0.176770
   30 H             0.809064    0.190936         0.817518    0.182482
   31 H             0.826245    0.173755         0.831275    0.168725
   32 H             0.800967    0.199033         0.813909    0.186091
   33 H             0.624814    0.375186         0.691932    0.308068
   34 H             0.816122    0.183878         0.832113    0.167887
   35 H             0.817863    0.182137         0.825303    0.174697
   36 H             0.815910    0.184090         0.832567    0.167433

          -------------------------------
          BOND ORDER AND VALENCE ANALYSIS     BOND ORDER THRESHOLD=0.050
          -------------------------------

                   BOND                       BOND                       BOND
  ATOM PAIR DIST  ORDER      ATOM PAIR DIST  ORDER      ATOM PAIR DIST  ORDER
    1   3  1.529  0.919        1  14  1.240  1.681        1  19  1.347  1.193
    2   3  1.453  0.931        2  16  1.358  1.163        2  17  2.279  0.084
    2  21  1.012  0.795        3   4  1.558  0.949        3  22  1.092  0.903
    4   5  1.495  1.015        4  23  1.098  0.917        4  24  1.096  0.921
    5   6  1.376  1.539        5   7  2.262  0.089        5  13  1.438  1.279
    6   7  1.380  1.087        6  25  1.082  0.920        7   8  1.381  0.991
    7  26  1.011  0.812        8   9  1.398  1.360        8  11  2.738  0.059
    8  13  1.425  1.280        9  10  1.392  1.443        9  12  2.860  0.097
    9  27  1.086  0.916       10  11  1.404  1.339       10  13  2.808  0.064
   10  28  1.085  0.917       11  12  1.382  1.434       11  15  1.363  0.900
   12  13  1.407  1.293       12  15  2.362  0.054       12  29  1.086  0.912
   14  19  2.272  0.079       16  17  1.237  1.713       16  18  1.516  0.982
   18  30  1.094  0.934       18  31  1.094  0.933       18  32  1.096  0.925
   19  20  1.459  0.926       19  33  1.012  0.808       20  34  1.095  0.938
   20  35  1.091  0.942       20  36  1.095  0.937

                       TOTAL       BONDED        FREE
      ATOM            VALENCE     VALENCE     VALENCE
    1 C                 3.816       3.816       0.000
    2 N                 2.985       2.985      -0.000
    3 C                 3.752       3.752       0.000
    4 C                 3.820       3.820       0.000
    5 C                 3.943       3.943       0.000
    6 C                 3.733       3.733      -0.000
    7 N                 3.066       3.066       0.000
    8 C                 3.770       3.770       0.000
    9 C                 3.839       3.839      -0.000
   10 C                 3.864       3.864       0.000
   11 C                 3.823       3.823      -0.000
   12 C                 3.800       3.800       0.000
   13 C                 4.030       4.030      -0.000
   14 O                 1.897       1.897       0.000
   15 F                 1.031       1.031      -0.000
   16 C                 3.894       3.894       0.000
   17 O                 1.907       1.907      -0.000
   18 C                 3.786       3.786       0.000
   19 N                 3.012       3.012       0.000
   20 C                 3.783       3.783       0.000
   21 H                 0.861       0.861       0.000
   22 H                 0.947       0.947      -0.000
   23 H                 0.929       0.929      -0.000
   24 H                 0.935       0.935       0.000
   25 H                 0.928       0.928      -0.000
   26 H                 0.833       0.833       0.000
   27 H                 0.928       0.928      -0.000
   28 H                 0.934       0.934       0.000
   29 H                 0.935       0.935      -0.000
   30 H                 0.931       0.931      -0.000
   31 H                 0.931       0.931      -0.000
   32 H                 0.922       0.922      -0.000
   33 H                 0.831       0.831       0.000
   34 H                 0.925       0.925      -0.000
   35 H                 0.928       0.928      -0.000
   36 H                 0.925       0.925       0.000

    **** A SOLVENT MODEL IS IN USE IN THIS RUN ****
 ELECTRICAL PROPERTIES (MOMENTS, DENSITY, FIELD/GRADIENT, AND/OR POTENTIAL)
 ARE COMPUTED USING THE SOLVATED SYSTEM'S DENSITY MATRIX, BUT
 ONLY WITH AO INTEGRAL CONTRIBUTIONS FROM THE QUANTUM SOLUTE.
 THE ONE EXCEPTION IS THE DIPOLE, WHICH IS ALSO PRINTED FOR THE TOTAL SYSTEM.

          ----------------------------
          SOLUTE ELECTROSTATIC MOMENTS
          ----------------------------

 POINT   1           X           Y           Z (BOHR)    CHARGE
                 8.537801   -2.038195    6.159450        0.00 (A.U.)
         DX          DY          DZ         /D/  (DEBYE)
    -0.016338   -2.300565   -2.775380    3.604941

          ----------------------------
          SYSTEM ELECTROSTATIC MOMENTS
          ----------------------------

 POINT   1           X           Y           Z (BOHR)    CHARGE
                 8.537801   -2.038195    6.159450        0.00 (A.U.)
         DX          DY          DZ         /D/  (DEBYE)
    -0.016338   -2.300565   -2.775380    3.604941
 INCLUDING PCM SURFACE CHARGES, TOTAL CHARGE=   -0.025136, AND TOTAL DIPOLE IS
         DX          DY          DZ         /D/  (DEBYE)
     0.087870   -0.030533    0.221226    0.239988
 MERZ-KOLLMAN RADII USED FOR CHARGE FITTING
 NUMBER OF POINTS SELECTED FOR FITTING =    1507
 Computing MEP/PCM

 NET CHARGES:
 -------------------------------------
 ATOM                CHARGE    E.S.D.
 -------------------------------------
 C                   0.0176    0.5275
 N                  -0.1159    0.7195
 C                   0.1146    1.3699
 C                  -0.0520    1.6770
 C                   0.0793    0.8361
 C                  -0.0199    0.5415
 N                  -0.0914    0.5108
 C                   0.0316    0.8224
 C                  -0.0020    0.6727
 C                   0.0018    0.6204
 C                  -0.0258    0.5451
 C                   0.0165    0.7791
 C                  -0.1162    0.9197
 O                  -0.0564    0.0360
 F                   0.0239    0.0226
 C                   0.0765    0.3800
 O                  -0.0596    0.0338
 C                  -0.0884    0.7904
 N                  -0.0419    0.4811
 C                  -0.2018    0.8893
 H                   0.0796    0.0607
 H                  -0.0219    0.1191
 H                   0.0270    0.1178
 H                  -0.0162    0.1189
 H                   0.0242    0.0451
 H                   0.0708    0.0430
 H                   0.0109    0.0412
 H                   0.0060    0.0398
 H                   0.0034    0.0558
 H                   0.0177    0.0556
 H                   0.0164    0.0588
 H                   0.0318    0.0521
 H                   0.0837    0.0451
 H                   0.0583    0.0565
 H                   0.0600    0.0562
 H                   0.0575    0.0565
 -------------------------------------

 RMS DEVIATION IS            1.595 KCAL/MOLE
 RELATIVE RMS DEVIATION IS  59.680 %

 MULTIPOLE MOMENTS:
 ---------------------------------------------------------
 STATUS  ACTUAL VALUE       QUANTITY        FITTED VALUE 
 ---------------------------------------------------------
 FIXED       0.0000       TOTAL CHARGE         0.0000
             3.6049 D    DIPOLE MOMENT         0.2276 D
 FREE       -0.0163 D          DX              0.1180 D
 FREE       -2.3006 D          DY              0.0090 D
 FREE       -2.7754 D          DZ              0.1944 D
 FREE        0.0000 BU         QXX            -0.8817 BU
 FREE        0.0000 BU         QYY             2.3547 BU
 FREE        0.0000 BU         QZZ            -1.4730 BU
 FREE        0.0000 BU         QXY             4.2690 BU
 FREE        0.0000 BU         QXZ             2.3841 BU
 FREE        0.0000 BU         QYZ             0.5235 BU
 ---------------------------------------------------------
 ...... END OF PROPERTY EVALUATION ......
 CPU     0: STEP CPU TIME=     1.22 TOTAL CPU TIME=        108.4 (      1.8 MIN)
 TOTAL WALL CLOCK TIME=        117.6 SECONDS, CPU UTILIZATION IS    92.11%

             ----------------------------------------------
             -------   RESULTS OF SMD CALCULATION   -------
             ----------------------------------------------
 INTERNAL ENERGY IN GAS = <PSI(0)| H(0) |PSI(0)>     =     -957.1930264187 A.U.
 INTERNAL ENERGY IN SOLVENT = <PSI| H(0) |PSI>       =     -957.1859423963 A.U.
 DELTA INTERNAL ENERGY =  <D-PSI| H(0) |D-PSI>       =        0.0070840224 A.U.
 TOTAL ENERGY IN SOLVENT = <PSI| H(0)+V/2 |PSI>      =     -957.2273638612 A.U.
 ELECTROSTATIC INTERACTION <PSI| V/2 |PSI>           =       -0.0414214649 A.U.
 CDS INTERACTION                                     =        0.0122115057 A.U.
 TOTAL FREE ENERGY IN SOLVENT                        =     -957.2151523554 A.U.

 DELTA INTERNAL ENERGY        =           4.45 KCAL/MOL
 ELECTROSTATIC INTERACTION    =         -25.99 KCAL/MOL
 CDS INTERACTION              =           7.66 KCAL/MOL
 FREE ENERGY OF SOLVATION     =         -13.88 KCAL/MOL
 FREE ENERGY OF SOLVATION     =         -11.99 KCAL/MOL (1 ATM STANDARD STATE)

 .... DONE PRINTING SMD SOLVENT SUMMARY ....
 CPU     0: STEP CPU TIME=     0.00 TOTAL CPU TIME=        108.4 (      1.8 MIN)
 TOTAL WALL CLOCK TIME=        117.7 SECONDS, CPU UTILIZATION IS    92.10%
 AN INPUT FILE FOR -MOLPLT- HAS BEEN PUNCHED.
              2903667  WORDS OF DYNAMIC MEMORY USED
 EXECUTION OF GAMESS TERMINATED NORMALLY 16:12:01 17-SEP-2022    
 DDI: 263640 bytes (0.3 MB / 0 MWords) used by master data server.

 ----------------------------------------
 CPU timing information for all processes
 ========================================
 0: 103.801 + 4.573 = 108.375
 1: 103.326 + 3.642 = 106.968
 2: 107.27 + 4.554 = 111.582
 3: 105.139 + 4.150 = 109.290
 4: 106.155 + 4.20 = 110.176
 5: 105.912 + 4.120 = 110.32
 6: 108.907 + 4.554 = 113.461
 7: 107.342 + 3.262 = 110.604
 ----------------------------------------
 ddikick.x: exited gracefully.
----- accounting info -----
Files used on the master node nitrogen.csb.vanderbilt.edu were:
-rw-r--r-- 1 brownbp1 meilerlab      2726 Sep 17 16:10 /tmp/5F-TRP.3D.capped.geoopt.F05
-rw-r--r-- 1 brownbp1 meilerlab 874618304 Sep 17 16:10 /tmp/5F-TRP.3D.capped.geoopt.F08
-rw-r--r-- 1 brownbp1 meilerlab 749809984 Sep 17 16:10 /tmp/5F-TRP.3D.capped.geoopt.F08.001
-rw-r--r-- 1 brownbp1 meilerlab 874378288 Sep 17 16:10 /tmp/5F-TRP.3D.capped.geoopt.F08.002
-rw-r--r-- 1 brownbp1 meilerlab 874618304 Sep 17 16:10 /tmp/5F-TRP.3D.capped.geoopt.F08.003
-rw-r--r-- 1 brownbp1 meilerlab 735889056 Sep 17 16:10 /tmp/5F-TRP.3D.capped.geoopt.F08.004
-rw-r--r-- 1 brownbp1 meilerlab 869577968 Sep 17 16:10 /tmp/5F-TRP.3D.capped.geoopt.F08.005
-rw-r--r-- 1 brownbp1 meilerlab 873898256 Sep 17 16:10 /tmp/5F-TRP.3D.capped.geoopt.F08.006
-rw-r--r-- 1 brownbp1 meilerlab 639642640 Sep 17 16:10 /tmp/5F-TRP.3D.capped.geoopt.F08.007
-rw-r--r-- 1 brownbp1 meilerlab  10077760 Sep 17 16:12 /tmp/5F-TRP.3D.capped.geoopt.F10
-rw-r--r-- 1 brownbp1 meilerlab         8 Sep 17 16:12 /tmp/5F-TRP.3D.capped.geoopt.F26
-rw-r--r-- 1 brownbp1 meilerlab         0 Sep 17 16:10 /tmp/5F-TRP.3D.capped.geoopt.F27
Sat Sep 17 16:12:05 CDT 2022
0.919u 1.325s 2:11.43 1.6%	0+0k 800+144io 1pf+0w
